 Entering Gaussian System, Link 0=/opt/cluster/programs/g16-c.01/g16/g16
 Input=/home/toepfer/Project_FMDCM/Water/source/gaussian_ccsdt_opt_water.com
 Output=/scratch/toepfer/gaussian_ccsdt_opt_water/gaussian_ccsdt_opt_water.out
 Initial command:
 /opt/cluster/programs/g16-c.01/g16/l1.exe "/scratch/toepfer/gaussian_ccsdt_opt_water/Gau-146846.inp" -scrdir="/scratch/toepfer/gaussian_ccsdt_opt_water/"
 Entering Link 1 = /opt/cluster/programs/g16-c.01/g16/l1.exe PID=    146847.
  
 Copyright (c) 1988-2019, Gaussian, Inc.  All Rights Reserved.
  
 This is part of the Gaussian(R) 16 program.  It is based on
 the Gaussian(R) 09 system (copyright 2009, Gaussian, Inc.),
 the Gaussian(R) 03 system (copyright 2003, Gaussian, Inc.),
 the Gaussian(R) 98 system (copyright 1998, Gaussian, Inc.),
 the Gaussian(R) 94 system (copyright 1995, Gaussian, Inc.),
 the Gaussian 92(TM) system (copyright 1992, Gaussian, Inc.),
 the Gaussian 90(TM) system (copyright 1990, Gaussian, Inc.),
 the Gaussian 88(TM) system (copyright 1988, Gaussian, Inc.),
 the Gaussian 86(TM) system (copyright 1986, Carnegie Mellon
 University), and the Gaussian 82(TM) system (copyright 1983,
 Carnegie Mellon University). Gaussian is a federally registered
 trademark of Gaussian, Inc.
  
 This software contains proprietary and confidential information,
 including trade secrets, belonging to Gaussian, Inc.
  
 This software is provided under written license and may be
 used, copied, transmitted, or stored only in accord with that
 written license.
  
 The following legend is applicable only to US Government
 contracts under FAR:
  
                    RESTRICTED RIGHTS LEGEND
  
 Use, reproduction and disclosure by the US Government is
 subject to restrictions as set forth in subparagraphs (a)
 and (c) of the Commercial Computer Software - Restricted
 Rights clause in FAR 52.227-19.
  
 Gaussian, Inc.
 340 Quinnipiac St., Bldg. 40, Wallingford CT 06492
  
  
 ---------------------------------------------------------------
 Warning -- This program may not be used in any manner that
 competes with the business of Gaussian, Inc. or will provide
 assistance to any competitor of Gaussian, Inc.  The licensee
 of this program is prohibited from giving any competitor of
 Gaussian, Inc. access to this program.  By using this program,
 the user acknowledges that Gaussian, Inc. is engaged in the
 business of creating and licensing software in the field of
 computational chemistry and represents and warrants to the
 licensee that it is not a competitor of Gaussian, Inc. and that
 it will not use this program in any manner prohibited above.
 ---------------------------------------------------------------
  

 Cite this work as:
 Gaussian 16, Revision C.01,
 M. J. Frisch, G. W. Trucks, H. B. Schlegel, G. E. Scuseria, 
 M. A. Robb, J. R. Cheeseman, G. Scalmani, V. Barone, 
 G. A. Petersson, H. Nakatsuji, X. Li, M. Caricato, A. V. Marenich, 
 J. Bloino, B. G. Janesko, R. Gomperts, B. Mennucci, H. P. Hratchian, 
 J. V. Ortiz, A. F. Izmaylov, J. L. Sonnenberg, D. Williams-Young, 
 F. Ding, F. Lipparini, F. Egidi, J. Goings, B. Peng, A. Petrone, 
 T. Henderson, D. Ranasinghe, V. G. Zakrzewski, J. Gao, N. Rega, 
 G. Zheng, W. Liang, M. Hada, M. Ehara, K. Toyota, R. Fukuda, 
 J. Hasegawa, M. Ishida, T. Nakajima, Y. Honda, O. Kitao, H. Nakai, 
 T. Vreven, K. Throssell, J. A. Montgomery, Jr., J. E. Peralta, 
 F. Ogliaro, M. J. Bearpark, J. J. Heyd, E. N. Brothers, K. N. Kudin, 
 V. N. Staroverov, T. A. Keith, R. Kobayashi, J. Normand, 
 K. Raghavachari, A. P. Rendell, J. C. Burant, S. S. Iyengar, 
 J. Tomasi, M. Cossi, J. M. Millam, M. Klene, C. Adamo, R. Cammi, 
 J. W. Ochterski, R. L. Martin, K. Morokuma, O. Farkas, 
 J. B. Foresman, and D. J. Fox, Gaussian, Inc., Wallingford CT, 2019.
 
 ******************************************
 Gaussian 16:  ES64L-G16RevC.01  3-Jul-2019
                 7-Feb-2023 
 ******************************************
 %nproc=4
 Will use up to    4 processors via shared memory.
 %mem=2000MB
 -----------------------------------------
 #P CCSD/aug-cc-pVTZ scf(maxcycle=200) opt
 -----------------------------------------
 1/18=20,19=15,38=1/1,3;
 2/9=110,12=2,17=6,18=5,40=1/2;
 3/5=16,6=1,7=10,11=9,25=1,30=1,71=1/1,2,3;
 4//1;
 5/5=2,7=200,38=5/2;
 8/6=4,9=120000,10=1/1,4;
 9/5=7,15=1/13;
 11/28=-8,29=200,42=3/11;
 10/5=6/2;
 6/7=2,8=2,9=2,10=2/1;
 7/12=7/1,2,3,16;
 1/18=20,19=15/3(2);
 2/9=110/2;
 99//99;
 2/9=110/2;
 3/5=16,6=1,7=10,11=9,25=1,30=1,71=1/1,2,3;
 4/5=5,16=3,69=1/1;
 5/5=2,7=200,38=5/2;
 8/6=4,9=120000,10=1/1,4;
 9/5=7,15=1/13;
 11/28=-8,29=200,42=3/11;
 10/5=6/2;
 7/12=7/1,2,3,16;
 1/18=20,19=15/3(-9);
 2/9=110/2;
 6/7=2,8=2,9=2,10=2/1;
 99/9=10/99;
 Leave Link    1 at Tue Feb  7 18:30:19 2023, MaxMem=   262144000 cpu:               0.1 elap:               0.0
 (Enter /opt/cluster/programs/g16-c.01/g16/l101.exe)
 ---------
 Water opt
 ---------
 Symbolic Z-matrix:
 Charge =  0 Multiplicity = 1
 O                     0.        0.        0. 
 H                     0.        0.        1.3112 
 H                     1.0354    0.       -0.6225 
 
 Add virtual bond connecting atoms H3         and O1         Dist= 2.28D+00.
 Add virtual bond connecting atoms H2         and O1         Dist= 2.48D+00.
 ITRead=  0  0  0
 MicOpt= -1 -1 -1
 NAtoms=      3 NQM=        3 NQMF=       0 NMMI=      0 NMMIF=      0
                NMic=       0 NMicF=      0.
                    Isotopes and Nuclear Properties:
 (Nuclear quadrupole moments (NQMom) in fm**2, nuclear magnetic moments (NMagM)
  in nuclear magnetons)

  Atom         1           2           3
 IAtWgt=          16           1           1
 AtmWgt=  15.9949146   1.0078250   1.0078250
 NucSpn=           0           1           1
 AtZEff=  -0.0000000  -0.0000000  -0.0000000
 NQMom=    0.0000000   0.0000000   0.0000000
 NMagM=    0.0000000   2.7928460   2.7928460
 AtZNuc=   8.0000000   1.0000000   1.0000000
 Leave Link  101 at Tue Feb  7 18:30:19 2023, MaxMem=   262144000 cpu:               1.4 elap:               0.3
 (Enter /opt/cluster/programs/g16-c.01/g16/l103.exe)

 GradGradGradGradGradGradGradGradGradGradGradGradGradGradGradGradGradGrad
 Berny optimization.
 Initialization pass.
                           ----------------------------
                           !    Initial Parameters    !
                           ! (Angstroms and Degrees)  !
 --------------------------                            --------------------------
 ! Name  Definition              Value          Derivative Info.                !
 --------------------------------------------------------------------------------
 ! R1    R(1,2)                  1.3112         estimate D2E/DX2                !
 ! R2    R(1,3)                  1.2081         estimate D2E/DX2                !
 ! A1    A(2,1,3)              121.015          estimate D2E/DX2                !
 --------------------------------------------------------------------------------
 Trust Radius=3.00D-01 FncErr=1.00D-07 GrdErr=1.00D-07 EigMax=2.50D+02 EigMin=1.00D-04
 Number of steps in this run=     20 maximum allowed number of steps=    100.
 GradGradGradGradGradGradGradGradGradGradGradGradGradGradGradGradGradGrad

 Leave Link  103 at Tue Feb  7 18:30:20 2023, MaxMem=   262144000 cpu:               0.0 elap:               0.0
 (Enter /opt/cluster/programs/g16-c.01/g16/l202.exe)
                          Input orientation:                          
 ---------------------------------------------------------------------
 Center     Atomic      Atomic             Coordinates (Angstroms)
 Number     Number       Type             X           Y           Z
 ---------------------------------------------------------------------
      1          8           0        0.000000    0.000000    0.000000
      2          1           0        0.000000    0.000000    1.311200
      3          1           0        1.035400    0.000000   -0.622500
 ---------------------------------------------------------------------
                    Distance matrix (angstroms):
                    1          2          3
     1  O    0.000000
     2  H    1.311200   0.000000
     3  H    1.208122   2.193456   0.000000
 Stoichiometry    H2O
 Framework group  CS[SG(H2O)]
 Deg. of freedom     3
 Full point group                 CS      NOp   2
 Largest Abelian subgroup         CS      NOp   2
 Largest concise Abelian subgroup C1      NOp   1
                         Standard orientation:                         
 ---------------------------------------------------------------------
 Center     Atomic      Atomic             Coordinates (Angstroms)
 Number     Number       Type             X           Y           Z
 ---------------------------------------------------------------------
      1          8           0        0.000000    0.124353    0.000000
      2          1           0        1.091746   -0.601826   -0.000000
      3          1           0       -1.091746   -0.392996   -0.000000
 ---------------------------------------------------------------------
 Rotational constants (GHZ):         739.6271420         207.7028587         162.1638412
 Leave Link  202 at Tue Feb  7 18:30:21 2023, MaxMem=   262144000 cpu:               0.0 elap:               0.0
 (Enter /opt/cluster/programs/g16-c.01/g16/l301.exe)
 Standard basis: Aug-CC-pVTZ (5D, 7F)
 Ernie: Thresh=  0.10000D-02 Tol=  0.10000D-05 Strict=F.
 Ernie:  3 primitive shells out of 52 were deleted.
 There are    73 symmetry adapted cartesian basis functions of A'  symmetry.
 There are    32 symmetry adapted cartesian basis functions of A"  symmetry.
 There are    62 symmetry adapted basis functions of A'  symmetry.
 There are    30 symmetry adapted basis functions of A"  symmetry.
    92 basis functions,   126 primitive gaussians,   105 cartesian basis functions
     5 alpha electrons        5 beta electrons
       nuclear repulsion energy         6.9740419019 Hartrees.
 IExCor=    0 DFT=F Ex=HF Corr=None ExCW=0 ScaHFX=  1.000000
 ScaDFX=  1.000000  1.000000  1.000000  1.000000 ScalE2=  1.000000  1.000000
 IRadAn=      5 IRanWt=     -1 IRanGd=            0 ICorTp=0 IEmpDi=  4
 NAtoms=    3 NActive=    3 NUniq=    3 SFac= 1.00D+00 NAtFMM=   60 NAOKFM=F Big=F
 Integral buffers will be    131072 words long.
 Raffenetti 1 integral format.
 Two-electron integral symmetry is turned on.
 Leave Link  301 at Tue Feb  7 18:30:22 2023, MaxMem=   262144000 cpu:               0.3 elap:               0.1
 (Enter /opt/cluster/programs/g16-c.01/g16/l302.exe)
 NPDir=0 NMtPBC=     1 NCelOv=     1 NCel=       1 NClECP=     1 NCelD=      1
         NCelK=      1 NCelE2=     1 NClLst=     1 CellRange=     0.0.
 One-electron integrals computed using PRISM.
 One-electron integral symmetry used in STVInt
 NBasis=    92 RedAO= T EigKep=  6.69D-04  NBF=    62    30
 NBsUse=    92 1.00D-06 EigRej= -1.00D+00 NBFU=    62    30
 Leave Link  302 at Tue Feb  7 18:30:22 2023, MaxMem=   262144000 cpu:               0.7 elap:               0.2
 (Enter /opt/cluster/programs/g16-c.01/g16/l303.exe)
 DipDrv:  MaxL=1.
 Leave Link  303 at Tue Feb  7 18:30:23 2023, MaxMem=   262144000 cpu:               0.2 elap:               0.1
 (Enter /opt/cluster/programs/g16-c.01/g16/l401.exe)
 ExpMin= 2.53D-02 ExpMax= 1.53D+04 ExpMxC= 5.22D+02 IAcc=3 IRadAn=         5 AccDes= 0.00D+00
 Harris functional with IExCor=  205 and IRadAn=       5 diagonalized for initial guess.
 HarFok:  IExCor=  205 AccDes= 0.00D+00 IRadAn=         5 IDoV= 1 UseB2=F ITyADJ=14
 ICtDFT=  3500011 ScaDFX=  1.000000  1.000000  1.000000  1.000000
 FoFCou: FMM=F IPFlag=           0 FMFlag=      100000 FMFlg1=           0
         NFxFlg=           0 DoJE=T BraDBF=F KetDBF=T FulRan=T
         wScrn=  0.000000 ICntrl=       500 IOpCl=  0 I1Cent=   200000004 NGrid=           0
         NMat0=    1 NMatS0=      1 NMatT0=    0 NMatD0=    1 NMtDS0=    0 NMtDT0=    0
 Petite list used in FoFCou.
 Harris En= -76.0547640326872    
 JPrj=0 DoOrth=F DoCkMO=F.
 Initial guess orbital symmetries:
       Occupied  (A') (A') (A') (A') (A")
       Virtual   (A') (A') (A') (A') (A') (A") (A') (A') (A") (A')
                 (A") (A') (A') (A') (A') (A') (A') (A") (A") (A')
                 (A') (A") (A") (A") (A') (A') (A') (A') (A') (A")
                 (A') (A") (A') (A') (A") (A") (A') (A') (A') (A')
                 (A') (A") (A') (A") (A') (A") (A') (A') (A") (A")
                 (A') (A') (A') (A') (A') (A") (A') (A') (A") (A')
                 (A") (A') (A') (A") (A") (A') (A") (A') (A") (A')
                 (A') (A') (A') (A') (A") (A') (A") (A") (A') (A')
                 (A") (A') (A") (A') (A') (A') (A')
 The electronic state of the initial guess is 1-A'.
 Leave Link  401 at Tue Feb  7 18:30:24 2023, MaxMem=   262144000 cpu:               1.5 elap:               0.4
 (Enter /opt/cluster/programs/g16-c.01/g16/l502.exe)
 Keep R1 ints in memory in symmetry-blocked form, NReq=13818732.
 FoFCou: FMM=F IPFlag=           0 FMFlag=           0 FMFlg1=           0
         NFxFlg=           0 DoJE=F BraDBF=F KetDBF=F FulRan=T
         wScrn=  0.000000 ICntrl=       600 IOpCl=  0 I1Cent=           0 NGrid=           0
         NMat0=    1 NMatS0=   4278 NMatT0=    0 NMatD0=    1 NMtDS0=    0 NMtDT0=    0
 Petite list used in FoFCou.
 Closed shell SCF:
 Using DIIS extrapolation, IDIIS=  1040.
 NGot=   262144000 LenX=   257454964 LenY=   257443498
 Requested convergence on RMS density matrix=1.00D-08 within 200 cycles.
 Requested convergence on MAX density matrix=1.00D-06.
 Requested convergence on             energy=1.00D-06.
 No special actions if energy rises.

 Cycle   1  Pass 1  IDiag  1:
 E= -75.8392043208252    
 DIIS: error= 4.47D-02 at cycle   1 NSaved=   1.
 NSaved= 1 IEnMin= 1 EnMin= -75.8392043208252     IErMin= 1 ErrMin= 4.47D-02
 ErrMax= 4.47D-02  0.00D+00 EMaxC= 1.00D-01 BMatC= 1.85D-01 BMatP= 1.85D-01
 IDIUse=3 WtCom= 5.53D-01 WtEn= 4.47D-01
 Coeff-Com:  0.100D+01
 Coeff-En:   0.100D+01
 Coeff:      0.100D+01
 Gap=     0.397 Goal=   None    Shift=    0.000
 GapD=    0.397 DampG=1.000 DampE=0.500 DampFc=0.5000 IDamp=-1.
 Damping current iteration by 5.00D-01
 RMSDP=2.42D-03 MaxDP=5.02D-02              OVMax= 1.67D-01

 Cycle   2  Pass 1  IDiag  1:
 E= -75.8855787203350     Delta-E=       -0.046374399510 Rises=F Damp=T
 DIIS: error= 2.45D-02 at cycle   2 NSaved=   2.
 NSaved= 2 IEnMin= 2 EnMin= -75.8855787203350     IErMin= 2 ErrMin= 2.45D-02
 ErrMax= 2.45D-02  0.00D+00 EMaxC= 1.00D-01 BMatC= 2.60D-02 BMatP= 1.85D-01
 IDIUse=3 WtCom= 7.55D-01 WtEn= 2.45D-01
 Coeff-Com: -0.199D+00 0.120D+01
 Coeff-En:   0.000D+00 0.100D+01
 Coeff:     -0.150D+00 0.115D+01
 Gap=     0.509 Goal=   None    Shift=    0.000
 RMSDP=6.28D-04 MaxDP=2.49D-02 DE=-4.64D-02 OVMax= 8.23D-02

 Cycle   3  Pass 1  IDiag  1:
 E= -75.9308857406172     Delta-E=       -0.045307020282 Rises=F Damp=F
 DIIS: error= 4.67D-03 at cycle   3 NSaved=   3.
 NSaved= 3 IEnMin= 3 EnMin= -75.9308857406172     IErMin= 3 ErrMin= 4.67D-03
 ErrMax= 4.67D-03  0.00D+00 EMaxC= 1.00D-01 BMatC= 1.02D-03 BMatP= 2.60D-02
 IDIUse=3 WtCom= 9.53D-01 WtEn= 4.67D-02
 Coeff-Com: -0.864D-01 0.104D+00 0.983D+00
 Coeff-En:   0.000D+00 0.000D+00 0.100D+01
 Coeff:     -0.823D-01 0.989D-01 0.983D+00
 Gap=     0.501 Goal=   None    Shift=    0.000
 RMSDP=1.89D-04 MaxDP=3.76D-03 DE=-4.53D-02 OVMax= 1.44D-02

 Cycle   4  Pass 1  IDiag  1:
 E= -75.9320142859048     Delta-E=       -0.001128545288 Rises=F Damp=F
 DIIS: error= 1.35D-03 at cycle   4 NSaved=   4.
 NSaved= 4 IEnMin= 4 EnMin= -75.9320142859048     IErMin= 4 ErrMin= 1.35D-03
 ErrMax= 1.35D-03  0.00D+00 EMaxC= 1.00D-01 BMatC= 5.36D-05 BMatP= 1.02D-03
 IDIUse=3 WtCom= 9.87D-01 WtEn= 1.35D-02
 Coeff-Com:  0.568D-01-0.899D-01-0.459D+00 0.149D+01
 Coeff-En:   0.000D+00 0.000D+00 0.000D+00 0.100D+01
 Coeff:      0.561D-01-0.887D-01-0.452D+00 0.149D+01
 Gap=     0.507 Goal=   None    Shift=    0.000
 RMSDP=9.91D-05 MaxDP=2.15D-03 DE=-1.13D-03 OVMax= 6.56D-03

 Cycle   5  Pass 1  IDiag  1:
 E= -75.9321598852229     Delta-E=       -0.000145599318 Rises=F Damp=F
 DIIS: error= 3.80D-04 at cycle   5 NSaved=   5.
 NSaved= 5 IEnMin= 5 EnMin= -75.9321598852229     IErMin= 5 ErrMin= 3.80D-04
 ErrMax= 3.80D-04  0.00D+00 EMaxC= 1.00D-01 BMatC= 2.87D-06 BMatP= 5.36D-05
 IDIUse=3 WtCom= 9.96D-01 WtEn= 3.80D-03
 Coeff-Com:  0.464D-02-0.508D-02-0.396D-01-0.122D+00 0.116D+01
 Coeff-En:   0.000D+00 0.000D+00 0.000D+00 0.000D+00 0.100D+01
 Coeff:      0.463D-02-0.506D-02-0.395D-01-0.121D+00 0.116D+01
 Gap=     0.508 Goal=   None    Shift=    0.000
 RMSDP=2.77D-05 MaxDP=6.43D-04 DE=-1.46D-04 OVMax= 2.02D-03

 Cycle   6  Pass 1  IDiag  1:
 E= -75.9321701208078     Delta-E=       -0.000010235585 Rises=F Damp=F
 DIIS: error= 7.25D-05 at cycle   6 NSaved=   6.
 NSaved= 6 IEnMin= 6 EnMin= -75.9321701208078     IErMin= 6 ErrMin= 7.25D-05
 ErrMax= 7.25D-05  0.00D+00 EMaxC= 1.00D-01 BMatC= 2.03D-07 BMatP= 2.87D-06
 IDIUse=1 WtCom= 1.00D+00 WtEn= 0.00D+00
 Coeff-Com: -0.347D-02 0.475D-02 0.298D-01-0.213D-01-0.445D+00 0.144D+01
 Coeff:     -0.347D-02 0.475D-02 0.298D-01-0.213D-01-0.445D+00 0.144D+01
 Gap=     0.509 Goal=   None    Shift=    0.000
 RMSDP=8.85D-06 MaxDP=1.82D-04 DE=-1.02D-05 OVMax= 7.74D-04

 Cycle   7  Pass 1  IDiag  1:
 E= -75.9321710004678     Delta-E=       -0.000000879660 Rises=F Damp=F
 DIIS: error= 2.26D-05 at cycle   7 NSaved=   7.
 NSaved= 7 IEnMin= 7 EnMin= -75.9321710004678     IErMin= 7 ErrMin= 2.26D-05
 ErrMax= 2.26D-05  0.00D+00 EMaxC= 1.00D-01 BMatC= 1.61D-08 BMatP= 2.03D-07
 IDIUse=1 WtCom= 1.00D+00 WtEn= 0.00D+00
 Coeff-Com:  0.228D-02-0.331D-02-0.191D-01 0.267D-01 0.212D+00-0.885D+00
 Coeff-Com:  0.167D+01
 Coeff:      0.228D-02-0.331D-02-0.191D-01 0.267D-01 0.212D+00-0.885D+00
 Coeff:      0.167D+01
 Gap=     0.509 Goal=   None    Shift=    0.000
 RMSDP=2.58D-06 MaxDP=6.67D-05 DE=-8.80D-07 OVMax= 2.38D-04

 Cycle   8  Pass 1  IDiag  1:
 E= -75.9321710752921     Delta-E=       -0.000000074824 Rises=F Damp=F
 DIIS: error= 8.93D-06 at cycle   8 NSaved=   8.
 NSaved= 8 IEnMin= 8 EnMin= -75.9321710752921     IErMin= 8 ErrMin= 8.93D-06
 ErrMax= 8.93D-06  0.00D+00 EMaxC= 1.00D-01 BMatC= 1.27D-09 BMatP= 1.61D-08
 IDIUse=1 WtCom= 1.00D+00 WtEn= 0.00D+00
 Coeff-Com: -0.263D-03 0.407D-03 0.286D-02-0.726D-02-0.404D-02 0.833D-01
 Coeff-Com: -0.440D+00 0.136D+01
 Coeff:     -0.263D-03 0.407D-03 0.286D-02-0.726D-02-0.404D-02 0.833D-01
 Coeff:     -0.440D+00 0.136D+01
 Gap=     0.509 Goal=   None    Shift=    0.000
 RMSDP=7.52D-07 MaxDP=1.44D-05 DE=-7.48D-08 OVMax= 5.13D-05

 Cycle   9  Pass 1  IDiag  1:
 E= -75.9321710799300     Delta-E=       -0.000000004638 Rises=F Damp=F
 DIIS: error= 1.03D-06 at cycle   9 NSaved=   9.
 NSaved= 9 IEnMin= 9 EnMin= -75.9321710799300     IErMin= 9 ErrMin= 1.03D-06
 ErrMax= 1.03D-06  0.00D+00 EMaxC= 1.00D-01 BMatC= 3.81D-11 BMatP= 1.27D-09
 IDIUse=1 WtCom= 1.00D+00 WtEn= 0.00D+00
 Coeff-Com: -0.249D-04 0.354D-04-0.922D-05 0.458D-05-0.242D-02 0.615D-02
 Coeff-Com:  0.363D-01-0.313D+00 0.127D+01
 Coeff:     -0.249D-04 0.354D-04-0.922D-05 0.458D-05-0.242D-02 0.615D-02
 Coeff:      0.363D-01-0.313D+00 0.127D+01
 Gap=     0.509 Goal=   None    Shift=    0.000
 RMSDP=1.43D-07 MaxDP=2.73D-06 DE=-4.64D-09 OVMax= 9.96D-06

 Cycle  10  Pass 1  IDiag  1:
 E= -75.9321710800631     Delta-E=       -0.000000000133 Rises=F Damp=F
 DIIS: error= 2.59D-07 at cycle  10 NSaved=  10.
 NSaved=10 IEnMin=10 EnMin= -75.9321710800631     IErMin=10 ErrMin= 2.59D-07
 ErrMax= 2.59D-07  0.00D+00 EMaxC= 1.00D-01 BMatC= 1.57D-12 BMatP= 3.81D-11
 IDIUse=1 WtCom= 1.00D+00 WtEn= 0.00D+00
 Coeff-Com:  0.235D-04-0.355D-04-0.208D-03 0.374D-03 0.141D-02-0.795D-02
 Coeff-Com:  0.260D-01-0.523D-01-0.906D-01 0.112D+01
 Coeff:      0.235D-04-0.355D-04-0.208D-03 0.374D-03 0.141D-02-0.795D-02
 Coeff:      0.260D-01-0.523D-01-0.906D-01 0.112D+01
 Gap=     0.509 Goal=   None    Shift=    0.000
 RMSDP=2.27D-08 MaxDP=4.11D-07 DE=-1.33D-10 OVMax= 2.01D-06

 Cycle  11  Pass 1  IDiag  1:
 E= -75.9321710800682     Delta-E=       -0.000000000005 Rises=F Damp=F
 DIIS: error= 5.99D-08 at cycle  11 NSaved=  11.
 NSaved=11 IEnMin=11 EnMin= -75.9321710800682     IErMin=11 ErrMin= 5.99D-08
 ErrMax= 5.99D-08  0.00D+00 EMaxC= 1.00D-01 BMatC= 1.53D-13 BMatP= 1.57D-12
 IDIUse=1 WtCom= 1.00D+00 WtEn= 0.00D+00
 Coeff-Com: -0.261D-06 0.407D-06 0.209D-04-0.424D-04 0.436D-04 0.276D-03
 Coeff-Com: -0.465D-02 0.191D-01-0.416D-01-0.230D+00 0.126D+01
 Coeff:     -0.261D-06 0.407D-06 0.209D-04-0.424D-04 0.436D-04 0.276D-03
 Coeff:     -0.465D-02 0.191D-01-0.416D-01-0.230D+00 0.126D+01
 Gap=     0.509 Goal=   None    Shift=    0.000
 RMSDP=6.77D-09 MaxDP=1.37D-07 DE=-5.17D-12 OVMax= 6.38D-07

 SCF Done:  E(RHF) =  -75.9321710801     A.U. after   11 cycles
            NFock= 11  Conv=0.68D-08     -V/T= 2.0094
 KE= 7.522340155483D+01 PE=-1.941799422437D+02 EE= 3.605032770687D+01
 Leave Link  502 at Tue Feb  7 18:30:26 2023, MaxMem=   262144000 cpu:               3.3 elap:               0.9
 (Enter /opt/cluster/programs/g16-c.01/g16/l801.exe)
 Windowed orbitals will be sorted by symmetry type.
 ExpMin= 2.53D-02 ExpMax= 1.53D+04 ExpMxC= 5.22D+02 IAcc=3 IRadAn=         5 AccDes= 0.00D+00
 HarFok:  IExCor=  205 AccDes= 0.00D+00 IRadAn=         5 IDoV=-2 UseB2=F ITyADJ=14
 ICtDFT= 12500011 ScaDFX=  1.000000  1.000000  1.000000  1.000000
 DSYEVD-2 returned Info=          93 IAlg= 4 N=    46 NDim=    46 NE2=     5698017 trying  DSYEV.
 Largest valence mixing into a core orbital is  1.20D-04
 Largest core mixing into a valence orbital is  2.45D-05
 Range of M.O.s used for correlation:     2    92
 NBasis=    92 NAE=     5 NBE=     5 NFC=     1 NFV=     0
 NROrb=     91 NOA=     4 NOB=     4 NVA=    87 NVB=    87

 **** Warning!!: The largest alpha MO coefficient is  0.11718349D+02

 Leave Link  801 at Tue Feb  7 18:30:27 2023, MaxMem=   262144000 cpu:               0.4 elap:               0.1
 (Enter /opt/cluster/programs/g16-c.01/g16/l804.exe)
 Closed-shell transformation, MDV=   262144000 ITran=4 ISComp=2.
 Unit  1 TFree=        277494 TCopy=        244572.
 Semi-Direct transformation.
 ModeAB=           2 MOrb=             4 LenV=     261756268
 LASXX=       736380 LTotXX=      736380 LenRXX=      736380
 LTotAB=      763744 MaxLAS=     2025660 LenRXY=     2025660
 NonZer=     2107560 LenScr=     3929600 LnRSAI=           0
 LnScr1=           0 LExtra=           0 Total=      6691640
 MaxDsk=          -1 SrtSym=           F ITran=            4
 DoSDTr:  NPSUse=  4
 JobTyp=0 Pass  1:  I=   1 to   4.
 (rs|ai) integrals will be sorted in core.
 Complete sort for first half transformation.
 First half transformation complete.
 Complete sort for second half transformation.
 Second half transformation complete.
 Spin components of T(2) and E(2):
     alpha-alpha T2 =       0.1074906812D-01 E2=     -0.3514236746D-01
     alpha-beta  T2 =       0.6781854842D-01 E2=     -0.2230943513D+00
     beta-beta   T2 =       0.1074906812D-01 E2=     -0.3514236746D-01
 ANorm=    0.1043703351D+01
 E2 =    -0.2933790862D+00 EUMP2 =    -0.76225550166254D+02
 Leave Link  804 at Tue Feb  7 18:30:28 2023, MaxMem=   262144000 cpu:               2.9 elap:               0.7
 (Enter /opt/cluster/programs/g16-c.01/g16/l913.exe)
 CIDS:  MDV=   262144000.
 Frozen-core window:  NFC=   1 NFV=   0.
 IFCWin=0 IBDFC=1 NFBD=     0     0 NFCmp=     0     0 NFFFC=     0     0
 Using DD3R+UMP44R for 1st iteration.
 Using DD4RQ for 2nd and later iterations.
 Keep R2 and R3 ints in memory in symmetry-blocked form, NReq=13980175.
 FoFCou: FMM=F IPFlag=           0 FMFlag=           0 FMFlg1=           0
         NFxFlg=           0 DoJE=F BraDBF=F KetDBF=F FulRan=T
         wScrn=  0.000000 ICntrl=       600 IOpCl=  0 I1Cent=           0 NGrid=           0
         NMat0=    1 NMatS0=   4278 NMatT0=    0 NMatD0=    1 NMtDS0=    0 NMtDT0=    0
 Petite list used in FoFCou.
 CIDS: In Core Option IDoMem=           1.
 Coupled Cluster theory with single and double substitutions
 ===========================================================
 Iterations=  50 Convergence= 0.100D-07
 Produce multiple copies of IABC intergrals
 Iteration Nr.   1
 **********************
 DD1Dir will call FoFMem   1 times, MxPair=        20
 NAB=    10 NAA=     0 NBB=     0.
 MP4(R+Q)=  0.57939410D-02
 Maximum subspace dimension=  5
 A-vector RMS=  4.4805758D-03 Max=  2.1601994D-02 conv= 1.00D-06.
 RLE energy=       -0.2842293796
 E3=        0.35790163D-02        EUMP3=      -0.76221971150D+02
 E4(DQ)=   -0.32886486D-02        UMP4(DQ)=   -0.76225259799D+02
 E4(SDQ)=  -0.71755420D-02        UMP4(SDQ)=  -0.76229146692D+02
 VARIATIONAL ENERGIES WITH THE FIRST-ORDER WAVEFUNCTION:
 DE(Corr)= -0.28393486     E(Corr)=     -76.216105936    
 NORM(A)=   0.10424603D+01
 Iteration Nr.   2
 **********************
 DD1Dir will call FoFMem   1 times, MxPair=        20
 NAB=    10 NAA=     0 NBB=     0.
 A-vector RMS=  6.7051835D-04 Max=  4.5186949D-03 conv= 1.00D-06.
 RLE energy=       -0.2950495088
 DE(Corr)= -0.29426152     E(CORR)=     -76.226432601     Delta=-1.03D-02
 NORM(A)=   0.10481491D+01
 Iteration Nr.   3
 **********************
 DD1Dir will call FoFMem   1 times, MxPair=        20
 NAB=    10 NAA=     0 NBB=     0.
 A-vector RMS=  8.6984790D-04 Max=  4.4478806D-03 conv= 1.00D-06.
 RLE energy=       -0.2960121321
 DE(Corr)= -0.29486396     E(CORR)=     -76.227035044     Delta=-6.02D-04
 NORM(A)=   0.10500888D+01
 Iteration Nr.   4
 **********************
 DD1Dir will call FoFMem   1 times, MxPair=        20
 NAB=    10 NAA=     0 NBB=     0.
 A-vector RMS=  2.4157595D-04 Max=  1.0153764D-03 conv= 1.00D-06.
 RLE energy=       -0.2961744100
 DE(Corr)= -0.29605349     E(CORR)=     -76.228224566     Delta=-1.19D-03
 NORM(A)=   0.10506753D+01
 Iteration Nr.   5
 **********************
 DD1Dir will call FoFMem   1 times, MxPair=        20
 NAB=    10 NAA=     0 NBB=     0.
 A-vector RMS=  1.4212769D-04 Max=  8.7578228D-04 conv= 1.00D-06.
 RLE energy=       -0.2962605250
 DE(Corr)= -0.29621034     E(CORR)=     -76.228381422     Delta=-1.57D-04
 NORM(A)=   0.10508929D+01
 Iteration Nr.   6
 **********************
 DD1Dir will call FoFMem   1 times, MxPair=        20
 NAB=    10 NAA=     0 NBB=     0.
 A-vector RMS=  4.8062444D-05 Max=  2.5937354D-04 conv= 1.00D-06.
 RLE energy=       -0.2962303201
 DE(Corr)= -0.29624290     E(CORR)=     -76.228413983     Delta=-3.26D-05
 NORM(A)=   0.10509253D+01
 Iteration Nr.   7
 **********************
 DD1Dir will call FoFMem   1 times, MxPair=        20
 NAB=    10 NAA=     0 NBB=     0.
 A-vector RMS=  2.1605888D-05 Max=  1.4342628D-04 conv= 1.00D-06.
 RLE energy=       -0.2962428350
 DE(Corr)= -0.29624775     E(CORR)=     -76.228418832     Delta=-4.85D-06
 NORM(A)=   0.10509367D+01
 Iteration Nr.   8
 **********************
 DD1Dir will call FoFMem   1 times, MxPair=        20
 NAB=    10 NAA=     0 NBB=     0.
 A-vector RMS=  5.9495740D-06 Max=  3.8698932D-05 conv= 1.00D-06.
 RLE energy=       -0.2962430007
 DE(Corr)= -0.29624440     E(CORR)=     -76.228415480     Delta= 3.35D-06
 NORM(A)=   0.10509392D+01
 Iteration Nr.   9
 **********************
 DD1Dir will call FoFMem   1 times, MxPair=        20
 NAB=    10 NAA=     0 NBB=     0.
 A-vector RMS=  2.7775666D-06 Max=  1.6757274D-05 conv= 1.00D-06.
 RLE energy=       -0.2962452923
 DE(Corr)= -0.29624562     E(CORR)=     -76.228416700     Delta=-1.22D-06
 NORM(A)=   0.10509417D+01
 Iteration Nr.  10
 **********************
 DD1Dir will call FoFMem   1 times, MxPair=        20
 NAB=    10 NAA=     0 NBB=     0.
 A-vector RMS=  1.1221623D-06 Max=  5.5016548D-06 conv= 1.00D-06.
 RLE energy=       -0.2962460879
 DE(Corr)= -0.29624592     E(CORR)=     -76.228417004     Delta=-3.04D-07
 NORM(A)=   0.10509429D+01
 Iteration Nr.  11
 **********************
 DD1Dir will call FoFMem   1 times, MxPair=        20
 NAB=    10 NAA=     0 NBB=     0.
 A-vector RMS=  3.4178110D-07 Max=  1.6113626D-06 conv= 1.00D-06.
 RLE energy=       -0.2962466023
 DE(Corr)= -0.29624650     E(CORR)=     -76.228417577     Delta=-5.73D-07
 NORM(A)=   0.10509436D+01
 Iteration Nr.  12
 **********************
 DD1Dir will call FoFMem   1 times, MxPair=        20
 NAB=    10 NAA=     0 NBB=     0.
 A-vector RMS=  2.0566141D-07 Max=  1.2665042D-06 conv= 1.00D-06.
 RLE energy=       -0.2962467016
 DE(Corr)= -0.29624663     E(CORR)=     -76.228417714     Delta=-1.36D-07
 NORM(A)=   0.10509439D+01
 Iteration Nr.  13
 **********************
 DD1Dir will call FoFMem   1 times, MxPair=        20
 NAB=    10 NAA=     0 NBB=     0.
 A-vector RMS=  9.8594945D-08 Max=  6.0795651D-07 conv= 1.00D-06.
 RLE energy=       -0.2962467930
 DE(Corr)= -0.29624676     E(CORR)=     -76.228417837     Delta=-1.23D-07
 NORM(A)=   0.10509441D+01
 Iteration Nr.  14
 **********************
 DD1Dir will call FoFMem   1 times, MxPair=        20
 NAB=    10 NAA=     0 NBB=     0.
 A-vector RMS=  6.5964985D-08 Max=  4.3661313D-07 conv= 1.00D-06.
 RLE energy=       -0.2962468099
 DE(Corr)= -0.29624679     E(CORR)=     -76.228417871     Delta=-3.40D-08
 NORM(A)=   0.10509442D+01
 Iteration Nr.  15
 **********************
 DD1Dir will call FoFMem   1 times, MxPair=        20
 NAB=    10 NAA=     0 NBB=     0.
 A-vector RMS=  3.1969949D-08 Max=  2.1690852D-07 conv= 1.00D-06.
 RLE energy=       -0.2962468097
 DE(Corr)= -0.29624681     E(CORR)=     -76.228417888     Delta=-1.77D-08
 NORM(A)=   0.10509442D+01
 Iteration Nr.  16
 **********************
 DD1Dir will call FoFMem   1 times, MxPair=        20
 NAB=    10 NAA=     0 NBB=     0.
 A-vector RMS=  1.4670646D-08 Max=  7.8569893D-08 conv= 1.00D-06.
 RLE energy=       -0.2962468138
 DE(Corr)= -0.29624681     E(CORR)=     -76.228417893     Delta=-5.15D-09
 NORM(A)=   0.10509442D+01
 CI/CC converged in   16 iterations to DelEn=-5.15D-09 Conv= 1.00D-08 ErrA1= 1.47D-08 Conv= 1.00D-06
 Wavefunction amplitudes converged. E(Corr)=     -76.228417893    
 Largest amplitude= 3.62D-02

 Z-amplitude iterations

 Iteration Nr.   1
 **********************
 DD1Dir will call FoFMem   1 times, MxPair=        20
 NAB=    10 NAA=     0 NBB=     0.
 A-vector RMS=  1.5187246D-03 Max=  7.7608314D-03 conv= 1.00D-06.
 RLE energy=       -0.2962475960
 DE(Z)= -0.28713716     E(Z)=     -76.219308238     Delta= 9.11D-03
 NORM(A)=   0.10509445D+01
 Iteration Nr.   2
 **********************
 DD1Dir will call FoFMem   1 times, MxPair=        20
 NAB=    10 NAA=     0 NBB=     0.
 A-vector RMS=  1.5188626D-03 Max=  7.7615385D-03 conv= 1.00D-06.
 RLE energy=       -0.2962452013
 DE(Z)= -0.28713725     E(Z)=     -76.219308335     Delta=-9.67D-08
 NORM(A)=   0.10509434D+01
 Iteration Nr.   3
 **********************
 DD1Dir will call FoFMem   1 times, MxPair=        20
 NAB=    10 NAA=     0 NBB=     0.
 A-vector RMS=  1.5185136D-03 Max=  7.7598033D-03 conv= 1.00D-06.
 RLE energy=       -0.2962500701
 DE(Z)= -0.28713702     E(Z)=     -76.219308102     Delta= 2.33D-07
 NORM(A)=   0.10509458D+01
 Iteration Nr.   4
 **********************
 DD1Dir will call FoFMem   1 times, MxPair=        20
 NAB=    10 NAA=     0 NBB=     0.
 A-vector RMS=  1.5192136D-03 Max=  7.7632909D-03 conv= 1.00D-06.
 RLE energy=       -0.2962412175
 DE(Z)= -0.28713746     E(Z)=     -76.219308544     Delta=-4.42D-07
 NORM(A)=   0.10509414D+01
 Iteration Nr.   5
 **********************
 DD1Dir will call FoFMem   1 times, MxPair=        20
 NAB=    10 NAA=     0 NBB=     0.
 A-vector RMS=  1.5178799D-03 Max=  7.7565423D-03 conv= 1.00D-06.
 RLE energy=       -0.2861887378
 DE(Z)= -0.28713663     E(Z)=     -76.219307710     Delta= 8.34D-07
 NORM(A)=   0.10462413D+01
 Iteration Nr.   6
 **********************
 DD1Dir will call FoFMem   1 times, MxPair=        20
 NAB=    10 NAA=     0 NBB=     0.
 A-vector RMS=  4.9241771D-06 Max=  2.5174018D-05 conv= 1.00D-06.
 RLE energy=       -0.2861910066
 DE(Z)= -0.28619117     E(Z)=     -76.218362249     Delta= 9.45D-04
 NORM(A)=   0.10462418D+01
 Iteration Nr.   7
 **********************
 DD1Dir will call FoFMem   1 times, MxPair=        20
 NAB=    10 NAA=     0 NBB=     0.
 A-vector RMS=  2.7764665D-06 Max=  2.2303535D-05 conv= 1.00D-06.
 RLE energy=       -0.2861916952
 DE(Z)= -0.28619236     E(Z)=     -76.218363439     Delta=-1.19D-06
 NORM(A)=   0.10462416D+01
 Iteration Nr.   8
 **********************
 DD1Dir will call FoFMem   1 times, MxPair=        20
 NAB=    10 NAA=     0 NBB=     0.
 A-vector RMS=  7.4769901D-07 Max=  3.4844674D-06 conv= 1.00D-06.
 RLE energy=       -0.2861917678
 DE(Z)= -0.28619180     E(Z)=     -76.218362881     Delta= 5.58D-07
 NORM(A)=   0.10462409D+01
 Iteration Nr.   9
 **********************
 DD1Dir will call FoFMem   1 times, MxPair=        20
 NAB=    10 NAA=     0 NBB=     0.
 A-vector RMS=  4.4484890D-07 Max=  2.5615970D-06 conv= 1.00D-06.
 RLE energy=       -0.2861917601
 DE(Z)= -0.28619186     E(Z)=     -76.218362945     Delta=-6.38D-08
 NORM(A)=   0.10462405D+01
 Iteration Nr.  10
 **********************
 DD1Dir will call FoFMem   1 times, MxPair=        20
 NAB=    10 NAA=     0 NBB=     0.
 A-vector RMS=  2.1580103D-07 Max=  1.2442582D-06 conv= 1.00D-06.
 RLE energy=       -0.2861916317
 DE(Z)= -0.28619167     E(Z)=     -76.218362752     Delta= 1.93D-07
 NORM(A)=   0.10462402D+01
 Iteration Nr.  11
 **********************
 DD1Dir will call FoFMem   1 times, MxPair=        20
 NAB=    10 NAA=     0 NBB=     0.
 A-vector RMS=  5.8929682D-08 Max=  3.2309944D-07 conv= 1.00D-06.
 RLE energy=       -0.2861916814
 DE(Z)= -0.28619168     E(Z)=     -76.218362760     Delta=-7.48D-09
 NORM(A)=   0.10462402D+01
 CI/CC converged in   11 iterations to DelEn=-7.48D-09 Conv= 1.00D-08 ErrA1= 5.89D-08 Conv= 1.00D-06
 Z-amplitudes converged.
 Discarding MO integrals.
 Leave Link  913 at Tue Feb  7 18:30:34 2023, MaxMem=   262144000 cpu:              22.9 elap:               5.7
 (Enter /opt/cluster/programs/g16-c.01/g16/l1111.exe)
 Unit  1 TFree=       2836676 TCopy=        220791.
 Selected functions:
 Compute CCSD 2PDM.
 Form Post-SCF non-separable gradient here.
 IO1PDM=    0 IOW=    0 IO2PDM=    0.
 MDV=     262144000.
 Frozen-core window:  NFC=   1 NFV=   0.
 Leave Link 1111 at Tue Feb  7 18:31:40 2023, MaxMem=   262144000 cpu:             256.9 elap:              65.0
 (Enter /opt/cluster/programs/g16-c.01/g16/l1002.exe)
 Minotr:  Closed shell wavefunction.
          Computing CCSD/QCISD derivatives.
          Using Z-Vector for PSCF gradient.
          Skipping F1 and S1 gradient terms here.
          IDoAtm=111
          Frozen-core window.
          Direct CPHF calculation.
          Differentiating once with respect to electric field.
                with respect to dipole field.
          Differentiating once with respect to nuclear coordinates.
          Using symmetry in CPHF.
          Requested convergence is 1.0D-10 RMS, and 1.0D-09 maximum.
          NewPWx=F KeepS1=T KeepF1=T KeepIn=T MapXYZ=F SortEE=F KeepMc=T.
 Keep R1 ints in memory in symmetry-blocked form, NReq=13819466.
 FoFCou: FMM=F IPFlag=           0 FMFlag=           0 FMFlg1=           0
         NFxFlg=           0 DoJE=F BraDBF=F KetDBF=F FulRan=T
         wScrn=  0.000000 ICntrl=       600 IOpCl=  0 I1Cent=           0 NGrid=           0
         NMat0=    1 NMatS0=   4278 NMatT0=    0 NMatD0=    1 NMtDS0=    0 NMtDT0=    0
 Petite list used in FoFCou.
          MDV=     262144000 using IRadAn=       5.
          Solving linear equations separately, MaxMat=       0.
          There are     1 degrees of freedom in the 1st order CPHF.  IDoFFX=0 NUNeed=     1.
 LinEq1:  Iter=  0 NonCon=     1 RMS=4.75D-03 Max=4.03D-02 NDo=     1
 AX will form     1 AO Fock derivatives at one time.
 LinEq1:  Iter=  1 NonCon=     1 RMS=8.72D-04 Max=6.12D-03 NDo=     1
 LinEq1:  Iter=  2 NonCon=     1 RMS=5.89D-04 Max=6.43D-03 NDo=     1
 LinEq1:  Iter=  3 NonCon=     1 RMS=1.31D-04 Max=8.83D-04 NDo=     1
 LinEq1:  Iter=  4 NonCon=     1 RMS=2.85D-05 Max=1.88D-04 NDo=     1
 LinEq1:  Iter=  5 NonCon=     1 RMS=6.12D-06 Max=3.93D-05 NDo=     1
 LinEq1:  Iter=  6 NonCon=     1 RMS=1.09D-06 Max=7.22D-06 NDo=     1
 LinEq1:  Iter=  7 NonCon=     1 RMS=1.57D-07 Max=1.19D-06 NDo=     1
 LinEq1:  Iter=  8 NonCon=     1 RMS=3.05D-08 Max=2.05D-07 NDo=     1
 LinEq1:  Iter=  9 NonCon=     1 RMS=5.78D-09 Max=3.62D-08 NDo=     1
 LinEq1:  Iter= 10 NonCon=     1 RMS=9.52D-10 Max=7.99D-09 NDo=     1
 LinEq1:  Iter= 11 NonCon=     1 RMS=1.30D-10 Max=1.04D-09 NDo=     1
 LinEq1:  Iter= 12 NonCon=     0 RMS=1.57D-11 Max=1.55D-10 NDo=     1
 Linear equations converged to 1.000D-10 1.000D-09 after    12 iterations.
 End of Minotr F.D. properties file   721 does not exist.
 End of Minotr F.D. properties file   722 does not exist.
 End of Minotr F.D. properties file   788 does not exist.
 Leave Link 1002 at Tue Feb  7 18:31:42 2023, MaxMem=   262144000 cpu:               4.8 elap:               1.3
 (Enter /opt/cluster/programs/g16-c.01/g16/l601.exe)
 Copying SCF densities to generalized density rwf, IOpCl= 0 IROHF=0.

 **********************************************************************

            Population analysis using the SCF Density.

 **********************************************************************

 Orbital symmetries:
       Occupied  (A') (A') (A') (A') (A")
       Virtual   (A') (A') (A') (A') (A') (A") (A') (A') (A") (A")
                 (A') (A') (A') (A') (A') (A') (A") (A') (A") (A')
                 (A') (A") (A") (A') (A') (A") (A') (A') (A') (A")
                 (A') (A") (A') (A') (A") (A") (A') (A') (A') (A')
                 (A') (A") (A') (A") (A') (A") (A') (A') (A") (A")
                 (A') (A') (A') (A') (A') (A") (A') (A") (A') (A')
                 (A") (A') (A') (A") (A") (A") (A') (A') (A') (A")
                 (A') (A') (A') (A') (A") (A') (A") (A") (A') (A')
                 (A") (A') (A') (A") (A') (A') (A')
 The electronic state is 1-A'.
 Alpha  occ. eigenvalues --  -20.59780  -1.24074  -0.59883  -0.50199  -0.48857
 Alpha virt. eigenvalues --    0.02009   0.04428   0.11419   0.15406   0.16530
 Alpha virt. eigenvalues --    0.16973   0.21001   0.23900   0.25603   0.30678
 Alpha virt. eigenvalues --    0.31081   0.35373   0.37195   0.40547   0.59987
 Alpha virt. eigenvalues --    0.61732   0.71497   0.71605   0.73818   0.76931
 Alpha virt. eigenvalues --    0.84065   0.86482   0.87934   0.95341   0.95469
 Alpha virt. eigenvalues --    0.97355   0.97752   0.98574   0.99607   1.00746
 Alpha virt. eigenvalues --    1.04034   1.05982   1.08871   1.33183   1.43538
 Alpha virt. eigenvalues --    1.47615   1.52013   1.58896   1.70109   1.73620
 Alpha virt. eigenvalues --    1.96493   2.20275   2.24005   2.27372   2.32507
 Alpha virt. eigenvalues --    2.33329   2.40524   2.42665   2.64177   2.70620
 Alpha virt. eigenvalues --    2.80845   2.86809   3.05422   3.21915   3.31461
 Alpha virt. eigenvalues --    3.89637   3.90814   3.91469   3.96215   4.00431
 Alpha virt. eigenvalues --    4.01841   4.13653   4.18518   4.27373   4.31476
 Alpha virt. eigenvalues --    4.49396   4.53338   4.57456   4.67618   4.75165
 Alpha virt. eigenvalues --    4.94971   4.99163   5.82874   6.38604   6.61730
 Alpha virt. eigenvalues --    6.63712   6.79621   6.86310   6.95517   7.08983
 Alpha virt. eigenvalues --    7.16648   7.17596   7.28128   7.30378   7.75956
 Alpha virt. eigenvalues --    7.98203  11.23931
          Condensed to atoms (all electrons):
               1          2          3
     1  O    8.118388   0.240303   0.250498
     2  H    0.240303   0.455752   0.002989
     3  H    0.250498   0.002989   0.438281
 Mulliken charges:
               1
     1  O   -0.609188
     2  H    0.300956
     3  H    0.308232
 Sum of Mulliken charges =  -0.00000
 Mulliken charges with hydrogens summed into heavy atoms:
               1
     1  O   -0.000000
 Electronic spatial extent (au):  <R**2>=             23.8061
 Charge=              0.0000 electrons
 Dipole moment (field-independent basis, Debye):
    X=             -0.0272    Y=             -1.8122    Z=             -0.0000  Tot=              1.8124
 Quadrupole moment (field-independent basis, Debye-Ang):
   XX=             -2.3241   YY=             -6.9532   ZZ=             -8.2170
   XY=             -0.4908   XZ=             -0.0000   YZ=             -0.0000
 Traceless Quadrupole moment (field-independent basis, Debye-Ang):
   XX=              3.5073   YY=             -1.1218   ZZ=             -2.3856
   XY=             -0.4908   XZ=             -0.0000   YZ=             -0.0000
 Octapole moment (field-independent basis, Debye-Ang**2):
  XXX=             -0.1422  YYY=             -0.3966  ZZZ=             -0.0000  XYY=              0.4150
  XXY=             -2.5210  XXZ=             -0.0000  XZZ=             -0.0586  YZZ=              0.0076
  YYZ=             -0.0000  XYZ=              0.0000
 Hexadecapole moment (field-independent basis, Debye-Ang**3):
 XXXX=             -6.6098 YYYY=             -9.6085 ZZZZ=             -7.8050 XXXY=             -0.2407
 XXXZ=             -0.0000 YYYX=              0.0502 YYYZ=             -0.0000 ZZZX=              0.0000
 ZZZY=             -0.0000 XXYY=             -2.4754 XXZZ=             -3.7037 YYZZ=             -2.9713
 XXYZ=              0.0000 YYXZ=             -0.0000 ZZXY=              0.1593
 N-N= 6.974041901921D+00 E-N=-1.941799435537D+02  KE= 7.522340155483D+01
 Symmetry A'   KE= 7.068070547540D+01
 Symmetry A"   KE= 4.542696079427D+00
 No NMR shielding tensors so no spin-rotation constants.
 Leave Link  601 at Tue Feb  7 18:31:43 2023, MaxMem=   262144000 cpu:               0.7 elap:               0.2
 (Enter /opt/cluster/programs/g16-c.01/g16/l701.exe)
 ... and contract with generalized density number  7.
 Compute integral first derivatives.
 Leave Link  701 at Tue Feb  7 18:31:44 2023, MaxMem=   262144000 cpu:               0.9 elap:               0.2
 (Enter /opt/cluster/programs/g16-c.01/g16/l702.exe)
 L702 exits ... SP integral derivatives will be done elsewhere.
 Leave Link  702 at Tue Feb  7 18:31:45 2023, MaxMem=   262144000 cpu:               0.2 elap:               0.0
 (Enter /opt/cluster/programs/g16-c.01/g16/l703.exe)
 Integral derivatives from FoFJK, PRISM(SPDF).
 Compute integral first derivatives, UseDBF=F ICtDFT=           0.
 Calling FoFJK, ICntrl=  10002127 FMM=F ISym2X=1 I1Cent= 0 IOpClX= 0 NMat=1 NMatS=1 NMatT=0.
 FoFJK:  IHMeth= 1 ICntrl=10002127 DoSepK=F KAlg= 0 I1Cent=           0 FoldK=F
 IRaf=         0 NMat=       1 IRICut=       1 DoRegI=T DoRafI=F ISym2E= 1 IDoP0=0 IntGTp=1.
 FoFCou: FMM=F IPFlag=           0 FMFlag=      100000 FMFlg1=         800
         NFxFlg=           0 DoJE=F BraDBF=F KetDBF=F FulRan=T
         wScrn=  0.000000 ICntrl=  10002127 IOpCl=  0 I1Cent=           0 NGrid=           0
         NMat0=    1 NMatS0=      1 NMatT0=    0 NMatD0=    1 NMtDS0=    0 NMtDT0=    0
 Petite list used in FoFCou.
 Leave Link  703 at Tue Feb  7 18:31:47 2023, MaxMem=   262144000 cpu:               4.7 elap:               1.2
 (Enter /opt/cluster/programs/g16-c.01/g16/l716.exe)
 Dipole        =-2.50050369D-02-6.15560453D-01-7.75803956D-32
 ***** Axes restored to original set *****
 -------------------------------------------------------------------
 Center     Atomic                   Forces (Hartrees/Bohr)
 Number     Number              X              Y              Z
 -------------------------------------------------------------------
      1        8           0.062907298   -0.000000000    0.040753485
      2        1           0.022422342    0.000000000   -0.120450069
      3        1          -0.085329640    0.000000000    0.079696584
 -------------------------------------------------------------------
 Cartesian Forces:  Max     0.120450069 RMS     0.061699854
 Leave Link  716 at Tue Feb  7 18:31:48 2023, MaxMem=   262144000 cpu:               0.2 elap:               0.1
 (Enter /opt/cluster/programs/g16-c.01/g16/l103.exe)

 GradGradGradGradGradGradGradGradGradGradGradGradGradGradGradGradGradGrad
 Berny optimization.
 FormGI is forming the generalized inverse of G from B-inverse, IUseBI=4.
 Internal  Forces:  Max     0.120450074 RMS     0.101053483
 Search for a local minimum.
 Step number   1 out of a maximum of   20
 All quantities printed in internal units (Hartrees-Bohrs-Radians)
 RMS Force = .10105D+00 SwitMx=.10000D-02 MixMth= 1
 Mixed Optimization -- RFO/linear search
 Second derivative matrix not updated -- first step.
 The second derivative matrix:
                          R1        R2        A1
           R1           0.18050
           R2           0.00000   0.24082
           A1           0.00000   0.00000   0.16000
 ITU=  0
     Eigenvalues ---    0.16000   0.18050   0.24082
 RFO step:  Lambda=-1.01385134D-01 EMin= 1.60000000D-01
 Linear search not attempted -- first point.
 Maximum step size (   0.300) exceeded in Quadratic search.
    -- Step size scaled by   0.515
 Iteration  1 RMS(Cart)=  0.18491523 RMS(Int)=  0.01489079
 Iteration  2 RMS(Cart)=  0.01046089 RMS(Int)=  0.00003480
 Iteration  3 RMS(Cart)=  0.00003987 RMS(Int)=  0.00000000
 Iteration  4 RMS(Cart)=  0.00000000 RMS(Int)=  0.00000000
 ITry= 1 IFail=0 DXMaxC= 2.13D-01 DCOld= 1.00D+10 DXMaxT= 3.00D-01 DXLimC= 3.00D+00 Rises=F
 ClnCor:  largest displacement from symmetrization is 1.34D-15 for atom     2.
 Variable       Old X    -DE/DX   Delta X   Delta X   Delta X     New X
                                 (Linear)    (Quad)   (Total)
    R1        2.47781  -0.12045   0.00000  -0.22013  -0.22013   2.25768
    R2        2.28302  -0.11419   0.00000  -0.17191  -0.17191   2.11111
    A1        2.11211  -0.05556   0.00000  -0.10950  -0.10950   2.00261
         Item               Value     Threshold  Converged?
 Maximum Force            0.120450     0.000450     NO 
 RMS     Force            0.101053     0.000300     NO 
 Maximum Displacement     0.212512     0.001800     NO 
 RMS     Displacement     0.190139     0.001200     NO 
 Predicted change in Energy=-4.333854D-02
 Lowest energy point so far.  Saving SCF results.
 GradGradGradGradGradGradGradGradGradGradGradGradGradGradGradGradGradGrad

 Leave Link  103 at Tue Feb  7 18:31:48 2023, MaxMem=   262144000 cpu:               0.0 elap:               0.0
 (Enter /opt/cluster/programs/g16-c.01/g16/l202.exe)
                          Input orientation:                          
 ---------------------------------------------------------------------
 Center     Atomic      Atomic             Coordinates (Angstroms)
 Number     Number       Type             X           Y           Z
 ---------------------------------------------------------------------
      1          8           0       -0.005647    0.000000    0.005769
      2          1           0        0.058777   -0.000000    1.198744
      3          1           0        0.982270   -0.000000   -0.515812
 ---------------------------------------------------------------------
                    Distance matrix (angstroms):
                    1          2          3
     1  O    0.000000
     2  H    1.194713   0.000000
     3  H    1.117151   1.947445   0.000000
 Stoichiometry    H2O
 Framework group  CS[SG(H2O)]
 Deg. of freedom     3
 Full point group                 CS      NOp   2
 RotChk:  IX=0 Diff= 2.70D-02
 Largest Abelian subgroup         CS      NOp   2
 Largest concise Abelian subgroup C1      NOp   1
                         Standard orientation:                         
 ---------------------------------------------------------------------
 Center     Atomic      Atomic             Coordinates (Angstroms)
 Number     Number       Type             X           Y           Z
 ---------------------------------------------------------------------
      1          8           0        0.000000    0.124827   -0.000000
      2          1           0        0.971070   -0.571134    0.000000
      3          1           0       -0.971070   -0.427485   -0.000000
 ---------------------------------------------------------------------
 Rotational constants (GHZ):         730.9801490         263.6227954         193.7487028
 Leave Link  202 at Tue Feb  7 18:31:49 2023, MaxMem=   262144000 cpu:               0.0 elap:               0.0
 (Enter /opt/cluster/programs/g16-c.01/g16/l301.exe)
 Standard basis: Aug-CC-pVTZ (5D, 7F)
 Ernie: Thresh=  0.10000D-02 Tol=  0.10000D-05 Strict=F.
 Ernie:  3 primitive shells out of 52 were deleted.
 There are    73 symmetry adapted cartesian basis functions of A'  symmetry.
 There are    32 symmetry adapted cartesian basis functions of A"  symmetry.
 There are    62 symmetry adapted basis functions of A'  symmetry.
 There are    30 symmetry adapted basis functions of A"  symmetry.
    92 basis functions,   126 primitive gaussians,   105 cartesian basis functions
     5 alpha electrons        5 beta electrons
       nuclear repulsion energy         7.6046664756 Hartrees.
 IExCor=    0 DFT=F Ex=HF Corr=None ExCW=0 ScaHFX=  1.000000
 ScaDFX=  1.000000  1.000000  1.000000  1.000000 ScalE2=  1.000000  1.000000
 IRadAn=      5 IRanWt=     -1 IRanGd=            0 ICorTp=0 IEmpDi=  4
 NAtoms=    3 NActive=    3 NUniq=    3 SFac= 1.00D+00 NAtFMM=   60 NAOKFM=F Big=F
 Integral buffers will be    131072 words long.
 Raffenetti 1 integral format.
 Two-electron integral symmetry is turned on.
 Leave Link  301 at Tue Feb  7 18:31:50 2023, MaxMem=   262144000 cpu:               0.2 elap:               0.1
 (Enter /opt/cluster/programs/g16-c.01/g16/l302.exe)
 NPDir=0 NMtPBC=     1 NCelOv=     1 NCel=       1 NClECP=     1 NCelD=      1
         NCelK=      1 NCelE2=     1 NClLst=     1 CellRange=     0.0.
 One-electron integrals computed using PRISM.
 One-electron integral symmetry used in STVInt
 NBasis=    92 RedAO= T EigKep=  5.29D-04  NBF=    62    30
 NBsUse=    92 1.00D-06 EigRej= -1.00D+00 NBFU=    62    30
 Leave Link  302 at Tue Feb  7 18:31:50 2023, MaxMem=   262144000 cpu:               0.7 elap:               0.2
 (Enter /opt/cluster/programs/g16-c.01/g16/l303.exe)
 DipDrv:  MaxL=1.
 Leave Link  303 at Tue Feb  7 18:31:51 2023, MaxMem=   262144000 cpu:               0.2 elap:               0.0
 (Enter /opt/cluster/programs/g16-c.01/g16/l401.exe)
 Initial guess from the checkpoint file:  "/scratch/toepfer/gaussian_ccsdt_opt_water/Gau-146847.chk"
 B after Tr=    -0.000000   -0.000000   -0.000000
         Rot=    0.999965   -0.000000    0.000000   -0.008337 Ang=  -0.96 deg.
 Guess basis will be translated and rotated to current coordinates.
 JPrj=2 DoOrth=T DoCkMO=T.
 Initial guess orbital symmetries:
       Occupied  (A') (A') (A') (A') (A")
       Virtual   (A') (A') (A') (A') (A') (A") (A') (A') (A") (A")
                 (A') (A') (A') (A') (A') (A') (A") (A') (A") (A')
                 (A') (A") (A") (A') (A') (A") (A') (A') (A') (A")
                 (A') (A") (A') (A') (A") (A") (A') (A') (A') (A')
                 (A') (A") (A') (A") (A') (A") (A') (A') (A") (A")
                 (A') (A') (A') (A') (A') (A") (A') (A") (A') (A')
                 (A") (A') (A') (A") (A") (A") (A') (A') (A') (A")
                 (A') (A') (A') (A') (A") (A') (A") (A") (A') (A')
                 (A") (A') (A') (A") (A') (A') (A')
 The electronic state of the initial guess is 1-A'.
 Generating alternative initial guess.
 ExpMin= 2.53D-02 ExpMax= 1.53D+04 ExpMxC= 5.22D+02 IAcc=3 IRadAn=         5 AccDes= 0.00D+00
 Harris functional with IExCor=  205 and IRadAn=       5 diagonalized for initial guess.
 HarFok:  IExCor=  205 AccDes= 0.00D+00 IRadAn=         5 IDoV= 1 UseB2=F ITyADJ=14
 ICtDFT=  3500011 ScaDFX=  1.000000  1.000000  1.000000  1.000000
 FoFCou: FMM=F IPFlag=           0 FMFlag=      100000 FMFlg1=           0
         NFxFlg=           0 DoJE=T BraDBF=F KetDBF=T FulRan=T
         wScrn=  0.000000 ICntrl=       500 IOpCl=  0 I1Cent=   200000004 NGrid=           0
         NMat0=    1 NMatS0=      1 NMatT0=    0 NMatD0=    1 NMtDS0=    0 NMtDT0=    0
 Petite list used in FoFCou.
 Harris En= -76.0989163158416    
 Leave Link  401 at Tue Feb  7 18:31:52 2023, MaxMem=   262144000 cpu:               1.6 elap:               0.4
 (Enter /opt/cluster/programs/g16-c.01/g16/l502.exe)
 Keep R1 ints in memory in symmetry-blocked form, NReq=13818732.
 FoFCou: FMM=F IPFlag=           0 FMFlag=           0 FMFlg1=           0
         NFxFlg=           0 DoJE=F BraDBF=F KetDBF=F FulRan=T
         wScrn=  0.000000 ICntrl=       600 IOpCl=  0 I1Cent=           0 NGrid=           0
         NMat0=    1 NMatS0=   4278 NMatT0=    0 NMatD0=    1 NMtDS0=    0 NMtDT0=    0
 Petite list used in FoFCou.
 Closed shell SCF:
 Using DIIS extrapolation, IDIIS=  1040.
 NGot=   262144000 LenX=   257454964 LenY=   257443498
 Requested convergence on RMS density matrix=1.00D-08 within 200 cycles.
 Requested convergence on MAX density matrix=1.00D-06.
 Requested convergence on             energy=1.00D-06.
 No special actions if energy rises.

 Cycle   1  Pass 1  IDiag  1:
 E= -75.9874490483592    
 DIIS: error= 9.10D-03 at cycle   1 NSaved=   1.
 NSaved= 1 IEnMin= 1 EnMin= -75.9874490483592     IErMin= 1 ErrMin= 9.10D-03
 ErrMax= 9.10D-03  0.00D+00 EMaxC= 1.00D-01 BMatC= 3.82D-03 BMatP= 3.82D-03
 IDIUse=3 WtCom= 9.09D-01 WtEn= 9.10D-02
 Coeff-Com:  0.100D+01
 Coeff-En:   0.100D+01
 Coeff:      0.100D+01
 Gap=     0.586 Goal=   None    Shift=    0.000
 GapD=    0.586 DampG=2.000 DampE=1.000 DampFc=2.0000 IDamp=-1.
 RMSDP=6.23D-04 MaxDP=1.11D-02              OVMax= 2.33D-02

 Cycle   2  Pass 1  IDiag  1:
 E= -75.9903748292445     Delta-E=       -0.002925780885 Rises=F Damp=F
 DIIS: error= 4.42D-03 at cycle   2 NSaved=   2.
 NSaved= 2 IEnMin= 2 EnMin= -75.9903748292445     IErMin= 2 ErrMin= 4.42D-03
 ErrMax= 4.42D-03  0.00D+00 EMaxC= 1.00D-01 BMatC= 7.27D-04 BMatP= 3.82D-03
 IDIUse=3 WtCom= 9.56D-01 WtEn= 4.42D-02
 Coeff-Com:  0.193D+00 0.807D+00
 Coeff-En:   0.000D+00 0.100D+01
 Coeff:      0.184D+00 0.816D+00
 Gap=     0.517 Goal=   None    Shift=    0.000
 RMSDP=1.58D-04 MaxDP=4.01D-03 DE=-2.93D-03 OVMax= 8.75D-03

 Cycle   3  Pass 1  IDiag  1:
 E= -75.9908056618951     Delta-E=       -0.000430832651 Rises=F Damp=F
 DIIS: error= 1.76D-03 at cycle   3 NSaved=   3.
 NSaved= 3 IEnMin= 3 EnMin= -75.9908056618951     IErMin= 3 ErrMin= 1.76D-03
 ErrMax= 1.76D-03  0.00D+00 EMaxC= 1.00D-01 BMatC= 1.21D-04 BMatP= 7.27D-04
 IDIUse=3 WtCom= 9.82D-01 WtEn= 1.76D-02
 Coeff-Com: -0.638D-01 0.247D+00 0.817D+00
 Coeff-En:   0.000D+00 0.000D+00 0.100D+01
 Coeff:     -0.627D-01 0.242D+00 0.821D+00
 Gap=     0.522 Goal=   None    Shift=    0.000
 RMSDP=6.97D-05 MaxDP=1.39D-03 DE=-4.31D-04 OVMax= 4.93D-03

 Cycle   4  Pass 1  IDiag  1:
 E= -75.9909184148629     Delta-E=       -0.000112752968 Rises=F Damp=F
 DIIS: error= 3.56D-04 at cycle   4 NSaved=   4.
 NSaved= 4 IEnMin= 4 EnMin= -75.9909184148629     IErMin= 4 ErrMin= 3.56D-04
 ErrMax= 3.56D-04  0.00D+00 EMaxC= 1.00D-01 BMatC= 3.93D-06 BMatP= 1.21D-04
 IDIUse=3 WtCom= 9.96D-01 WtEn= 3.56D-03
 Coeff-Com:  0.223D-02-0.863D-01-0.915D-01 0.118D+01
 Coeff-En:   0.000D+00 0.000D+00 0.000D+00 0.100D+01
 Coeff:      0.222D-02-0.860D-01-0.912D-01 0.118D+01
 Gap=     0.521 Goal=   None    Shift=    0.000
 RMSDP=2.37D-05 MaxDP=4.82D-04 DE=-1.13D-04 OVMax= 1.67D-03

 Cycle   5  Pass 1  IDiag  1:
 E= -75.9909276388209     Delta-E=       -0.000009223958 Rises=F Damp=F
 DIIS: error= 8.82D-05 at cycle   5 NSaved=   5.
 NSaved= 5 IEnMin= 5 EnMin= -75.9909276388209     IErMin= 5 ErrMin= 8.82D-05
 ErrMax= 8.82D-05  0.00D+00 EMaxC= 1.00D-01 BMatC= 3.27D-07 BMatP= 3.93D-06
 IDIUse=1 WtCom= 1.00D+00 WtEn= 0.00D+00
 Coeff-Com:  0.527D-02-0.734D-02-0.510D-01-0.256D+00 0.131D+01
 Coeff:      0.527D-02-0.734D-02-0.510D-01-0.256D+00 0.131D+01
 Gap=     0.520 Goal=   None    Shift=    0.000
 RMSDP=1.12D-05 MaxDP=2.67D-04 DE=-9.22D-06 OVMax= 8.39D-04

 Cycle   6  Pass 1  IDiag  1:
 E= -75.9909288948536     Delta-E=       -0.000001256033 Rises=F Damp=F
 DIIS: error= 2.36D-05 at cycle   6 NSaved=   6.
 NSaved= 6 IEnMin= 6 EnMin= -75.9909288948536     IErMin= 6 ErrMin= 2.36D-05
 ErrMax= 2.36D-05  0.00D+00 EMaxC= 1.00D-01 BMatC= 2.25D-08 BMatP= 3.27D-07
 IDIUse=1 WtCom= 1.00D+00 WtEn= 0.00D+00
 Coeff-Com: -0.223D-02 0.675D-02 0.266D-01 0.521D-01-0.603D+00 0.152D+01
 Coeff:     -0.223D-02 0.675D-02 0.266D-01 0.521D-01-0.603D+00 0.152D+01
 Gap=     0.520 Goal=   None    Shift=    0.000
 RMSDP=2.80D-06 MaxDP=6.06D-05 DE=-1.26D-06 OVMax= 2.46D-04

 Cycle   7  Pass 1  IDiag  1:
 E= -75.9909289818060     Delta-E=       -0.000000086952 Rises=F Damp=F
 DIIS: error= 5.45D-06 at cycle   7 NSaved=   7.
 NSaved= 7 IEnMin= 7 EnMin= -75.9909289818060     IErMin= 7 ErrMin= 5.45D-06
 ErrMax= 5.45D-06  0.00D+00 EMaxC= 1.00D-01 BMatC= 6.66D-10 BMatP= 2.25D-08
 IDIUse=1 WtCom= 1.00D+00 WtEn= 0.00D+00
 Coeff-Com:  0.537D-03-0.188D-02-0.666D-02-0.801D-02 0.153D+00-0.508D+00
 Coeff-Com:  0.137D+01
 Coeff:      0.537D-03-0.188D-02-0.666D-02-0.801D-02 0.153D+00-0.508D+00
 Coeff:      0.137D+01
 Gap=     0.520 Goal=   None    Shift=    0.000
 RMSDP=7.28D-07 MaxDP=1.66D-05 DE=-8.70D-08 OVMax= 3.54D-05

 Cycle   8  Pass 1  IDiag  1:
 E= -75.9909289841520     Delta-E=       -0.000000002346 Rises=F Damp=F
 DIIS: error= 1.43D-06 at cycle   8 NSaved=   8.
 NSaved= 8 IEnMin= 8 EnMin= -75.9909289841520     IErMin= 8 ErrMin= 1.43D-06
 ErrMax= 1.43D-06  0.00D+00 EMaxC= 1.00D-01 BMatC= 4.41D-11 BMatP= 6.66D-10
 IDIUse=1 WtCom= 1.00D+00 WtEn= 0.00D+00
 Coeff-Com: -0.120D-03 0.479D-03 0.171D-02 0.246D-03-0.348D-01 0.140D+00
 Coeff-Com: -0.585D+00 0.148D+01
 Coeff:     -0.120D-03 0.479D-03 0.171D-02 0.246D-03-0.348D-01 0.140D+00
 Coeff:     -0.585D+00 0.148D+01
 Gap=     0.520 Goal=   None    Shift=    0.000
 RMSDP=1.55D-07 MaxDP=2.62D-06 DE=-2.35D-09 OVMax= 7.85D-06

 Cycle   9  Pass 1  IDiag  1:
 E= -75.9909289842996     Delta-E=       -0.000000000148 Rises=F Damp=F
 DIIS: error= 2.10D-07 at cycle   9 NSaved=   9.
 NSaved= 9 IEnMin= 9 EnMin= -75.9909289842996     IErMin= 9 ErrMin= 2.10D-07
 ErrMax= 2.10D-07  0.00D+00 EMaxC= 1.00D-01 BMatC= 1.33D-12 BMatP= 4.41D-11
 IDIUse=1 WtCom= 1.00D+00 WtEn= 0.00D+00
 Coeff-Com: -0.201D-04 0.663D-04 0.234D-03 0.483D-03-0.577D-02 0.171D-01
 Coeff-Com: -0.241D-01-0.133D+00 0.115D+01
 Coeff:     -0.201D-04 0.663D-04 0.234D-03 0.483D-03-0.577D-02 0.171D-01
 Coeff:     -0.241D-01-0.133D+00 0.115D+01
 Gap=     0.520 Goal=   None    Shift=    0.000
 RMSDP=2.30D-08 MaxDP=5.82D-07 DE=-1.48D-10 OVMax= 1.21D-06

 Cycle  10  Pass 1  IDiag  1:
 E= -75.9909289843040     Delta-E=       -0.000000000004 Rises=F Damp=F
 DIIS: error= 3.81D-08 at cycle  10 NSaved=  10.
 NSaved=10 IEnMin=10 EnMin= -75.9909289843040     IErMin=10 ErrMin= 3.81D-08
 ErrMax= 3.81D-08  0.00D+00 EMaxC= 1.00D-01 BMatC= 6.21D-14 BMatP= 1.33D-12
 IDIUse=1 WtCom= 1.00D+00 WtEn= 0.00D+00
 Coeff-Com:  0.792D-05-0.324D-04-0.111D-03 0.444D-05 0.204D-02-0.829D-02
 Coeff-Com:  0.311D-01-0.613D-01-0.125D+00 0.116D+01
 Coeff:      0.792D-05-0.324D-04-0.111D-03 0.444D-05 0.204D-02-0.829D-02
 Coeff:      0.311D-01-0.613D-01-0.125D+00 0.116D+01
 Gap=     0.520 Goal=   None    Shift=    0.000
 RMSDP=8.77D-09 MaxDP=2.60D-07 DE=-4.38D-12 OVMax= 3.35D-07

 SCF Done:  E(RHF) =  -75.9909289843     A.U. after   10 cycles
            NFock= 10  Conv=0.88D-08     -V/T= 2.0080
 KE= 7.539055152846D+01 PE=-1.955426520085D+02 EE= 3.655650502010D+01
 Leave Link  502 at Tue Feb  7 18:31:54 2023, MaxMem=   262144000 cpu:               3.4 elap:               0.9
 (Enter /opt/cluster/programs/g16-c.01/g16/l801.exe)
 Windowed orbitals will be sorted by symmetry type.
 ExpMin= 2.53D-02 ExpMax= 1.53D+04 ExpMxC= 5.22D+02 IAcc=3 IRadAn=         5 AccDes= 0.00D+00
 HarFok:  IExCor=  205 AccDes= 0.00D+00 IRadAn=         5 IDoV=-2 UseB2=F ITyADJ=14
 ICtDFT= 12500011 ScaDFX=  1.000000  1.000000  1.000000  1.000000
 Largest valence mixing into a core orbital is  1.18D-04
 Largest core mixing into a valence orbital is  2.24D-05
 Range of M.O.s used for correlation:     2    92
 NBasis=    92 NAE=     5 NBE=     5 NFC=     1 NFV=     0
 NROrb=     91 NOA=     4 NOB=     4 NVA=    87 NVB=    87

 **** Warning!!: The largest alpha MO coefficient is  0.12628259D+02

 Leave Link  801 at Tue Feb  7 18:31:54 2023, MaxMem=   262144000 cpu:               0.3 elap:               0.1
 (Enter /opt/cluster/programs/g16-c.01/g16/l804.exe)
 Closed-shell transformation, MDV=   262144000 ITran=4 ISComp=2.
 Semi-Direct transformation.
 ModeAB=           2 MOrb=             4 LenV=     261756128
 LASXX=       736380 LTotXX=      736380 LenRXX=      736380
 LTotAB=      763744 MaxLAS=     2025660 LenRXY=     2025660
 NonZer=     2107560 LenScr=     3929600 LnRSAI=           0
 LnScr1=           0 LExtra=           0 Total=      6691640
 MaxDsk=          -1 SrtSym=           F ITran=            4
 DoSDTr:  NPSUse=  4
 JobTyp=0 Pass  1:  I=   1 to   4.
 (rs|ai) integrals will be sorted in core.
 Complete sort for first half transformation.
 First half transformation complete.
 Complete sort for second half transformation.
 Second half transformation complete.
 Spin components of T(2) and E(2):
     alpha-alpha T2 =       0.9811699826D-02 E2=     -0.3427937519D-01
     alpha-beta  T2 =       0.5957590014D-01 E2=     -0.2157991065D+00
     beta-beta   T2 =       0.9811699826D-02 E2=     -0.3427937519D-01
 ANorm=    0.1038845176D+01
 E2 =    -0.2843578568D+00 EUMP2 =    -0.76275286841147D+02
 Leave Link  804 at Tue Feb  7 18:31:56 2023, MaxMem=   262144000 cpu:               3.2 elap:               0.8
 (Enter /opt/cluster/programs/g16-c.01/g16/l913.exe)
 CIDS:  MDV=   262144000.
 Frozen-core window:  NFC=   1 NFV=   0.
 IFCWin=0 IBDFC=1 NFBD=     0     0 NFCmp=     0     0 NFFFC=     0     0
 Using DD3R+UMP44R for 1st iteration.
 Using DD4RQ for 2nd and later iterations.
 Keep R2 and R3 ints in memory in symmetry-blocked form, NReq=13980175.
 FoFCou: FMM=F IPFlag=           0 FMFlag=           0 FMFlg1=           0
         NFxFlg=           0 DoJE=F BraDBF=F KetDBF=F FulRan=T
         wScrn=  0.000000 ICntrl=       600 IOpCl=  0 I1Cent=           0 NGrid=           0
         NMat0=    1 NMatS0=   4278 NMatT0=    0 NMatD0=    1 NMtDS0=    0 NMtDT0=    0
 Petite list used in FoFCou.
 CIDS: In Core Option IDoMem=           1.
 Coupled Cluster theory with single and double substitutions
 ===========================================================
 Iterations=  50 Convergence= 0.100D-07
 Produce multiple copies of IABC intergrals
 Iteration Nr.   1
 **********************
 DD1Dir will call FoFMem   1 times, MxPair=        20
 NAB=    10 NAA=     0 NBB=     0.
 MP4(R+Q)=  0.50314534D-02
 Maximum subspace dimension=  5
 A-vector RMS=  3.8283615D-03 Max=  1.8083043D-02 conv= 1.00D-06.
 RLE energy=       -0.2781108411
 E3=        0.12978466D-02        EUMP3=      -0.76273988995D+02
 E4(DQ)=   -0.21765563D-02        UMP4(DQ)=   -0.76276165551D+02
 E4(SDQ)=  -0.52272920D-02        UMP4(SDQ)=  -0.76279216287D+02
 VARIATIONAL ENERGIES WITH THE FIRST-ORDER WAVEFUNCTION:
 DE(Corr)= -0.27797053     E(Corr)=     -76.268899515    
 NORM(A)=   0.10379471D+01
 Iteration Nr.   2
 **********************
 DD1Dir will call FoFMem   1 times, MxPair=        20
 NAB=    10 NAA=     0 NBB=     0.
 A-vector RMS=  5.0477375D-04 Max=  3.3025025D-03 conv= 1.00D-06.
 RLE energy=       -0.2868316626
 DE(Corr)= -0.28623235     E(CORR)=     -76.277161330     Delta=-8.26D-03
 NORM(A)=   0.10419233D+01
 Iteration Nr.   3
 **********************
 DD1Dir will call FoFMem   1 times, MxPair=        20
 NAB=    10 NAA=     0 NBB=     0.
 A-vector RMS=  6.4119420D-04 Max=  3.5951867D-03 conv= 1.00D-06.
 RLE energy=       -0.2874794079
 DE(Corr)= -0.28670886     E(CORR)=     -76.277637848     Delta=-4.77D-04
 NORM(A)=   0.10430210D+01
 Iteration Nr.   4
 **********************
 DD1Dir will call FoFMem   1 times, MxPair=        20
 NAB=    10 NAA=     0 NBB=     0.
 A-vector RMS=  1.4189556D-04 Max=  6.4603857D-04 conv= 1.00D-06.
 RLE energy=       -0.2875680290
 DE(Corr)= -0.28749889     E(CORR)=     -76.278427873     Delta=-7.90D-04
 NORM(A)=   0.10433176D+01
 Iteration Nr.   5
 **********************
 DD1Dir will call FoFMem   1 times, MxPair=        20
 NAB=    10 NAA=     0 NBB=     0.
 A-vector RMS=  7.2718266D-05 Max=  3.7544177D-04 conv= 1.00D-06.
 RLE energy=       -0.2876073048
 DE(Corr)= -0.28758748     E(CORR)=     -76.278516462     Delta=-8.86D-05
 NORM(A)=   0.10433960D+01
 Iteration Nr.   6
 **********************
 DD1Dir will call FoFMem   1 times, MxPair=        20
 NAB=    10 NAA=     0 NBB=     0.
 A-vector RMS=  2.2850985D-05 Max=  1.0535327D-04 conv= 1.00D-06.
 RLE energy=       -0.2875940023
 DE(Corr)= -0.28759945     E(CORR)=     -76.278528432     Delta=-1.20D-05
 NORM(A)=   0.10434037D+01
 Iteration Nr.   7
 **********************
 DD1Dir will call FoFMem   1 times, MxPair=        20
 NAB=    10 NAA=     0 NBB=     0.
 A-vector RMS=  1.0813259D-05 Max=  6.8656412D-05 conv= 1.00D-06.
 RLE energy=       -0.2875979454
 DE(Corr)= -0.28760065     E(CORR)=     -76.278529635     Delta=-1.20D-06
 NORM(A)=   0.10434068D+01
 Iteration Nr.   8
 **********************
 DD1Dir will call FoFMem   1 times, MxPair=        20
 NAB=    10 NAA=     0 NBB=     0.
 A-vector RMS=  3.4579673D-06 Max=  2.1675451D-05 conv= 1.00D-06.
 RLE energy=       -0.2875986770
 DE(Corr)= -0.28759930     E(CORR)=     -76.278528280     Delta= 1.36D-06
 NORM(A)=   0.10434078D+01
 Iteration Nr.   9
 **********************
 DD1Dir will call FoFMem   1 times, MxPair=        20
 NAB=    10 NAA=     0 NBB=     0.
 A-vector RMS=  1.4190106D-06 Max=  7.9443739D-06 conv= 1.00D-06.
 RLE energy=       -0.2875995769
 DE(Corr)= -0.28759969     E(CORR)=     -76.278528675     Delta=-3.95D-07
 NORM(A)=   0.10434087D+01
 Iteration Nr.  10
 **********************
 DD1Dir will call FoFMem   1 times, MxPair=        20
 NAB=    10 NAA=     0 NBB=     0.
 A-vector RMS=  5.3818496D-07 Max=  3.1248431D-06 conv= 1.00D-06.
 RLE energy=       -0.2875999399
 DE(Corr)= -0.28759987     E(CORR)=     -76.278528855     Delta=-1.80D-07
 NORM(A)=   0.10434092D+01
 Iteration Nr.  11
 **********************
 DD1Dir will call FoFMem   1 times, MxPair=        20
 NAB=    10 NAA=     0 NBB=     0.
 A-vector RMS=  1.5010830D-07 Max=  8.9154957D-07 conv= 1.00D-06.
 RLE energy=       -0.2876001550
 DE(Corr)= -0.28760011     E(CORR)=     -76.278529093     Delta=-2.38D-07
 NORM(A)=   0.10434094D+01
 Iteration Nr.  12
 **********************
 DD1Dir will call FoFMem   1 times, MxPair=        20
 NAB=    10 NAA=     0 NBB=     0.
 A-vector RMS=  7.4405945D-08 Max=  4.4352625D-07 conv= 1.00D-06.
 RLE energy=       -0.2876001916
 DE(Corr)= -0.28760016     E(CORR)=     -76.278529149     Delta=-5.62D-08
 NORM(A)=   0.10434095D+01
 Iteration Nr.  13
 **********************
 DD1Dir will call FoFMem   1 times, MxPair=        20
 NAB=    10 NAA=     0 NBB=     0.
 A-vector RMS=  3.1145029D-08 Max=  1.5577875D-07 conv= 1.00D-06.
 RLE energy=       -0.2876002192
 DE(Corr)= -0.28760021     E(CORR)=     -76.278529194     Delta=-4.46D-08
 NORM(A)=   0.10434095D+01
 Iteration Nr.  14
 **********************
 DD1Dir will call FoFMem   1 times, MxPair=        20
 NAB=    10 NAA=     0 NBB=     0.
 A-vector RMS=  1.9821181D-08 Max=  1.1813732D-07 conv= 1.00D-06.
 RLE energy=       -0.2876002246
 DE(Corr)= -0.28760022     E(CORR)=     -76.278529204     Delta=-1.05D-08
 NORM(A)=   0.10434095D+01
 Iteration Nr.  15
 **********************
 DD1Dir will call FoFMem   1 times, MxPair=        20
 NAB=    10 NAA=     0 NBB=     0.
 A-vector RMS=  1.0388872D-08 Max=  6.0951793D-08 conv= 1.00D-06.
 RLE energy=       -0.2876002238
 DE(Corr)= -0.28760022     E(CORR)=     -76.278529208     Delta=-3.92D-09
 NORM(A)=   0.10434095D+01
 CI/CC converged in   15 iterations to DelEn=-3.92D-09 Conv= 1.00D-08 ErrA1= 1.04D-08 Conv= 1.00D-06
 Wavefunction amplitudes converged. E(Corr)=     -76.278529208    
 Largest amplitude= 3.01D-02

 Z-amplitude iterations

 Iteration Nr.   1
 **********************
 DD1Dir will call FoFMem   1 times, MxPair=        20
 NAB=    10 NAA=     0 NBB=     0.
 A-vector RMS=  1.2554883D-03 Max=  6.1057779D-03 conv= 1.00D-06.
 RLE energy=       -0.2875999649
 DE(Z)= -0.28044277     E(Z)=     -76.271371757     Delta= 7.16D-03
 NORM(A)=   0.10434094D+01
 Iteration Nr.   2
 **********************
 DD1Dir will call FoFMem   1 times, MxPair=        20
 NAB=    10 NAA=     0 NBB=     0.
 A-vector RMS=  1.2554416D-03 Max=  6.1055489D-03 conv= 1.00D-06.
 RLE energy=       -0.2876019175
 DE(Z)= -0.28044274     E(Z)=     -76.271371722     Delta= 3.50D-08
 NORM(A)=   0.10434102D+01
 Iteration Nr.   3
 **********************
 DD1Dir will call FoFMem   1 times, MxPair=        20
 NAB=    10 NAA=     0 NBB=     0.
 A-vector RMS=  1.2557192D-03 Max=  6.1068455D-03 conv= 1.00D-06.
 RLE energy=       -0.2875987193
 DE(Z)= -0.28044294     E(Z)=     -76.271371922     Delta=-2.01D-07
 NORM(A)=   0.10434089D+01
 Iteration Nr.   4
 **********************
 DD1Dir will call FoFMem   1 times, MxPair=        20
 NAB=    10 NAA=     0 NBB=     0.
 A-vector RMS=  1.2552526D-03 Max=  6.1046448D-03 conv= 1.00D-06.
 RLE energy=       -0.2875817163
 DE(Z)= -0.28044261     E(Z)=     -76.271371595     Delta= 3.27D-07
 NORM(A)=   0.10434014D+01
 Iteration Nr.   5
 **********************
 DD1Dir will call FoFMem   1 times, MxPair=        20
 NAB=    10 NAA=     0 NBB=     0.
 A-vector RMS=  1.2525587D-03 Max=  6.0916062D-03 conv= 1.00D-06.
 RLE energy=       -0.2795866144
 DE(Z)= -0.28044077     E(Z)=     -76.271369753     Delta= 1.84D-06
 NORM(A)=   0.10401299D+01
 Iteration Nr.   6
 **********************
 DD1Dir will call FoFMem   1 times, MxPair=        20
 NAB=    10 NAA=     0 NBB=     0.
 A-vector RMS=  4.5153753D-06 Max=  2.3372951D-05 conv= 1.00D-06.
 RLE energy=       -0.2795833900
 DE(Z)= -0.27958418     E(Z)=     -76.270513162     Delta= 8.57D-04
 NORM(A)=   0.10401286D+01
 Iteration Nr.   7
 **********************
 DD1Dir will call FoFMem   1 times, MxPair=        20
 NAB=    10 NAA=     0 NBB=     0.
 A-vector RMS=  1.0788478D-06 Max=  4.4333003D-06 conv= 1.00D-06.
 RLE energy=       -0.2795845158
 DE(Z)= -0.27958457     E(Z)=     -76.270513554     Delta=-3.92D-07
 NORM(A)=   0.10401284D+01
 Iteration Nr.   8
 **********************
 DD1Dir will call FoFMem   1 times, MxPair=        20
 NAB=    10 NAA=     0 NBB=     0.
 A-vector RMS=  4.3623313D-07 Max=  2.0960096D-06 conv= 1.00D-06.
 RLE energy=       -0.2795845366
 DE(Z)= -0.27958459     E(Z)=     -76.270513573     Delta=-1.87D-08
 NORM(A)=   0.10401283D+01
 Iteration Nr.   9
 **********************
 DD1Dir will call FoFMem   1 times, MxPair=        20
 NAB=    10 NAA=     0 NBB=     0.
 A-vector RMS=  1.4510253D-07 Max=  7.2365335D-07 conv= 1.00D-06.
 RLE energy=       -0.2795844989
 DE(Z)= -0.27958452     E(Z)=     -76.270513503     Delta= 6.93D-08
 NORM(A)=   0.10401282D+01
 Iteration Nr.  10
 **********************
 DD1Dir will call FoFMem   1 times, MxPair=        20
 NAB=    10 NAA=     0 NBB=     0.
 A-vector RMS=  7.6282024D-08 Max=  4.1980912D-07 conv= 1.00D-06.
 RLE energy=       -0.2795844852
 DE(Z)= -0.27958450     E(Z)=     -76.270513481     Delta= 2.27D-08
 NORM(A)=   0.10401281D+01
 Iteration Nr.  11
 **********************
 DD1Dir will call FoFMem   1 times, MxPair=        20
 NAB=    10 NAA=     0 NBB=     0.
 A-vector RMS=  3.1661755D-08 Max=  1.9624539D-07 conv= 1.00D-06.
 RLE energy=       -0.2795844917
 DE(Z)= -0.27958450     E(Z)=     -76.270513479     Delta= 1.22D-09
 NORM(A)=   0.10401281D+01
 CI/CC converged in   11 iterations to DelEn= 1.22D-09 Conv= 1.00D-08 ErrA1= 3.17D-08 Conv= 1.00D-06
 Z-amplitudes converged.
 Discarding MO integrals.
 Leave Link  913 at Tue Feb  7 18:32:02 2023, MaxMem=   262144000 cpu:              21.8 elap:               5.5
 (Enter /opt/cluster/programs/g16-c.01/g16/l1111.exe)
 Unit  1 TFree=      30947976 TCopy=        757877.
 Selected functions:
 Compute CCSD 2PDM.
 Form Post-SCF non-separable gradient here.
 IO1PDM=    0 IOW=    0 IO2PDM=    0.
 MDV=     262144000.
 Frozen-core window:  NFC=   1 NFV=   0.
 Leave Link 1111 at Tue Feb  7 18:33:56 2023, MaxMem=   262144000 cpu:             402.8 elap:             114.0
 (Enter /opt/cluster/programs/g16-c.01/g16/l1002.exe)
 Minotr:  Closed shell wavefunction.
          Computing CCSD/QCISD derivatives.
          Using Z-Vector for PSCF gradient.
          Skipping F1 and S1 gradient terms here.
          IDoAtm=111
          Frozen-core window.
          Direct CPHF calculation.
          Differentiating once with respect to electric field.
                with respect to dipole field.
          Differentiating once with respect to nuclear coordinates.
          Using symmetry in CPHF.
          Requested convergence is 1.0D-10 RMS, and 1.0D-09 maximum.
          NewPWx=F KeepS1=T KeepF1=T KeepIn=T MapXYZ=F SortEE=F KeepMc=T.
 Keep R1 ints in memory in symmetry-blocked form, NReq=13819466.
 FoFCou: FMM=F IPFlag=           0 FMFlag=           0 FMFlg1=           0
         NFxFlg=           0 DoJE=F BraDBF=F KetDBF=F FulRan=T
         wScrn=  0.000000 ICntrl=       600 IOpCl=  0 I1Cent=           0 NGrid=           0
         NMat0=    1 NMatS0=   4278 NMatT0=    0 NMatD0=    1 NMtDS0=    0 NMtDT0=    0
 Petite list used in FoFCou.
          MDV=     262144000 using IRadAn=       5.
          Solving linear equations separately, MaxMat=       0.
          There are     1 degrees of freedom in the 1st order CPHF.  IDoFFX=0 NUNeed=     1.
 LinEq1:  Iter=  0 NonCon=     1 RMS=3.87D-03 Max=3.58D-02 NDo=     1
 AX will form     1 AO Fock derivatives at one time.
 LinEq1:  Iter=  1 NonCon=     1 RMS=7.34D-04 Max=6.68D-03 NDo=     1
 LinEq1:  Iter=  2 NonCon=     1 RMS=4.80D-04 Max=5.05D-03 NDo=     1
 LinEq1:  Iter=  3 NonCon=     1 RMS=7.92D-05 Max=4.91D-04 NDo=     1
 LinEq1:  Iter=  4 NonCon=     1 RMS=1.52D-05 Max=9.52D-05 NDo=     1
 LinEq1:  Iter=  5 NonCon=     1 RMS=2.94D-06 Max=2.30D-05 NDo=     1
 LinEq1:  Iter=  6 NonCon=     1 RMS=5.04D-07 Max=3.57D-06 NDo=     1
 LinEq1:  Iter=  7 NonCon=     1 RMS=7.50D-08 Max=4.84D-07 NDo=     1
 LinEq1:  Iter=  8 NonCon=     1 RMS=1.40D-08 Max=9.26D-08 NDo=     1
 LinEq1:  Iter=  9 NonCon=     1 RMS=2.39D-09 Max=1.81D-08 NDo=     1
 LinEq1:  Iter= 10 NonCon=     1 RMS=3.27D-10 Max=2.10D-09 NDo=     1
 LinEq1:  Iter= 11 NonCon=     0 RMS=4.39D-11 Max=3.63D-10 NDo=     1
 Linear equations converged to 1.000D-10 1.000D-09 after    11 iterations.
 End of Minotr F.D. properties file   721 does not exist.
 End of Minotr F.D. properties file   722 does not exist.
 End of Minotr F.D. properties file   788 does not exist.
 Leave Link 1002 at Tue Feb  7 18:33:58 2023, MaxMem=   262144000 cpu:               4.7 elap:               1.3
 (Enter /opt/cluster/programs/g16-c.01/g16/l701.exe)
 ... and contract with generalized density number  7.
 Compute integral first derivatives.
 Leave Link  701 at Tue Feb  7 18:33:59 2023, MaxMem=   262144000 cpu:               0.9 elap:               0.2
 (Enter /opt/cluster/programs/g16-c.01/g16/l702.exe)
 L702 exits ... SP integral derivatives will be done elsewhere.
 Leave Link  702 at Tue Feb  7 18:34:00 2023, MaxMem=   262144000 cpu:               0.2 elap:               0.0
 (Enter /opt/cluster/programs/g16-c.01/g16/l703.exe)
 Integral derivatives from FoFJK, PRISM(SPDF).
 Compute integral first derivatives, UseDBF=F ICtDFT=           0.
 Calling FoFJK, ICntrl=  10002127 FMM=F ISym2X=1 I1Cent= 0 IOpClX= 0 NMat=1 NMatS=1 NMatT=0.
 FoFJK:  IHMeth= 1 ICntrl=10002127 DoSepK=F KAlg= 0 I1Cent=           0 FoldK=F
 IRaf=         0 NMat=       1 IRICut=       1 DoRegI=T DoRafI=F ISym2E= 1 IDoP0=0 IntGTp=1.
 FoFCou: FMM=F IPFlag=           0 FMFlag=      100000 FMFlg1=         800
         NFxFlg=           0 DoJE=F BraDBF=F KetDBF=F FulRan=T
         wScrn=  0.000000 ICntrl=  10002127 IOpCl=  0 I1Cent=           0 NGrid=           0
         NMat0=    1 NMatS0=      1 NMatT0=    0 NMatD0=    1 NMtDS0=    0 NMtDT0=    0
 Petite list used in FoFCou.
 Leave Link  703 at Tue Feb  7 18:34:02 2023, MaxMem=   262144000 cpu:               4.3 elap:               1.1
 (Enter /opt/cluster/programs/g16-c.01/g16/l716.exe)
 Dipole        =-1.54478282D-02-6.79926077D-01 6.88531428D-32
 ***** Axes restored to original set *****
 -------------------------------------------------------------------
 Center     Atomic                   Forces (Hartrees/Bohr)
 Number     Number              X              Y              Z
 -------------------------------------------------------------------
      1        8           0.065304403    0.000000000    0.053845986
      2        1           0.011818516    0.000000000   -0.116427971
      3        1          -0.077122919   -0.000000000    0.062581985
 -------------------------------------------------------------------
 Cartesian Forces:  Max     0.116427971 RMS     0.058427214
 Leave Link  716 at Tue Feb  7 18:34:02 2023, MaxMem=   262144000 cpu:               0.2 elap:               0.1
 (Enter /opt/cluster/programs/g16-c.01/g16/l103.exe)

 GradGradGradGradGradGradGradGradGradGradGradGradGradGradGradGradGradGrad
 Berny optimization.
 Using GEDIIS/GDIIS optimizer.
 FormGI is forming the generalized inverse of G from B-inverse, IUseBI=4.
 Internal  Forces:  Max     0.115621273 RMS     0.090415696
 Search for a local minimum.
 Step number   2 out of a maximum of   20
 All quantities printed in internal units (Hartrees-Bohrs-Radians)
 RMS Force = .90416D-01 SwitMx=.10000D-02 MixMth= 1
 Mixed Optimization -- RFO/linear search
 Update second derivatives using D2CorX and points    1    2
 DE= -5.01D-02 DEPred=-4.33D-02 R= 1.16D+00
 TightC=F SS=  1.41D+00  RLast= 3.00D-01 DXNew= 5.0454D-01 9.0000D-01
 Trust test= 1.16D+00 RLast= 3.00D-01 DXMaxT set to 5.05D-01
 The second derivative matrix:
                          R1        R2        A1
           R1           0.09591
           R2          -0.07794   0.19504
           A1          -0.02635   0.00368   0.18181
 ITU=  1  0
 Use linear search instead of GDIIS.
 Linear search step of   0.578 exceeds DXMaxT=   0.505 but not scaled.
 Quartic linear search produced a step of  1.92648.
 Iteration  1 RMS(Cart)=  0.23625298 RMS(Int)=  0.15923727
 Iteration  2 RMS(Cart)=  0.11929731 RMS(Int)=  0.02011206
 Iteration  3 RMS(Cart)=  0.01572064 RMS(Int)=  0.00004977
 Iteration  4 RMS(Cart)=  0.00004308 RMS(Int)=  0.00000000
 Iteration  5 RMS(Cart)=  0.00000000 RMS(Int)=  0.00000000
 ITry= 1 IFail=0 DXMaxC= 4.04D-01 DCOld= 1.00D+10 DXMaxT= 5.05D-01 DXLimC= 3.00D+00 Rises=F
 ClnCor:  largest displacement from symmetrization is 6.68D-16 for atom     2.
 Variable       Old X    -DE/DX   Delta X   Delta X   Delta X     New X
                                 (Linear)    (Quad)   (Total)
    R1        2.25768  -0.11562  -0.42407   0.00000  -0.42407   1.83361
    R2        2.11111  -0.09742  -0.33118   0.00000  -0.33118   1.77993
    A1        2.00261  -0.04082  -0.21095   0.00000  -0.21095   1.79166
         Item               Value     Threshold  Converged?
 Maximum Force            0.115621     0.000450     NO 
 RMS     Force            0.090416     0.000300     NO 
 Maximum Displacement     0.403661     0.001800     NO 
 RMS     Displacement     0.352063     0.001200     NO 
 Predicted change in Energy=-7.958718D-02
 Lowest energy point so far.  Saving SCF results.
 GradGradGradGradGradGradGradGradGradGradGradGradGradGradGradGradGradGrad

 Leave Link  103 at Tue Feb  7 18:34:03 2023, MaxMem=   262144000 cpu:               0.1 elap:               0.0
 (Enter /opt/cluster/programs/g16-c.01/g16/l202.exe)
                          Input orientation:                          
 ---------------------------------------------------------------------
 Center     Atomic      Atomic             Coordinates (Angstroms)
 Number     Number       Type             X           Y           Z
 ---------------------------------------------------------------------
      1          8           0        0.001864   -0.000000    0.027436
      2          1           0        0.157743   -0.000000    0.985136
      3          1           0        0.875793    0.000000   -0.323871
 ---------------------------------------------------------------------
                    Distance matrix (angstroms):
[...]
 NAB=    10 NAA=     0 NBB=     0.
 A-vector RMS=  9.3349190D-04 Max=  3.9874225D-03 conv= 1.00D-06.
 RLE energy=       -0.2731698353
 DE(Z)= -0.26807470     E(Z)=     -76.328572030     Delta= 5.10D-03
 NORM(A)=   0.10337291D+01
 Iteration Nr.   2
 **********************
 DD1Dir will call FoFMem   1 times, MxPair=        20
 NAB=    10 NAA=     0 NBB=     0.
 A-vector RMS=  9.3295177D-04 Max=  3.9850967D-03 conv= 1.00D-06.
 RLE energy=       -0.2731692376
 DE(Z)= -0.26807431     E(Z)=     -76.328571647     Delta= 3.84D-07
 NORM(A)=   0.10337289D+01
 Iteration Nr.   3
 **********************
 DD1Dir will call FoFMem   1 times, MxPair=        20
 NAB=    10 NAA=     0 NBB=     0.
 A-vector RMS=  9.3297263D-04 Max=  3.9853180D-03 conv= 1.00D-06.
 RLE energy=       -0.2731675163
 DE(Z)= -0.26807433     E(Z)=     -76.328571666     Delta=-1.94D-08
 NORM(A)=   0.10337282D+01
 Iteration Nr.   4
 **********************
 DD1Dir will call FoFMem   1 times, MxPair=        20
 NAB=    10 NAA=     0 NBB=     0.
 A-vector RMS=  9.3263214D-04 Max=  3.9837861D-03 conv= 1.00D-06.
 RLE energy=       -0.2731374842
 DE(Z)= -0.26807412     E(Z)=     -76.328571455     Delta= 2.11D-07
 NORM(A)=   0.10337177D+01
 Iteration Nr.   5
 **********************
 DD1Dir will call FoFMem   1 times, MxPair=        20
 NAB=    10 NAA=     0 NBB=     0.
 A-vector RMS=  9.2772804D-04 Max=  3.9629816D-03 conv= 1.00D-06.
 RLE energy=       -0.2674520965
 DE(Z)= -0.26807084     E(Z)=     -76.328568178     Delta= 3.28D-06
 NORM(A)=   0.10318561D+01
 Iteration Nr.   6
 **********************
 DD1Dir will call FoFMem   1 times, MxPair=        20
 NAB=    10 NAA=     0 NBB=     0.
 A-vector RMS=  1.2587566D-06 Max=  5.2739309D-06 conv= 1.00D-06.
 RLE energy=       -0.2674516866
 DE(Z)= -0.26745184     E(Z)=     -76.327949170     Delta= 6.19D-04
 NORM(A)=   0.10318562D+01
 Iteration Nr.   7
 **********************
 DD1Dir will call FoFMem   1 times, MxPair=        20
 NAB=    10 NAA=     0 NBB=     0.
 A-vector RMS=  7.1557415D-07 Max=  3.7415706D-06 conv= 1.00D-06.
 RLE energy=       -0.2674518067
 DE(Z)= -0.26745194     E(Z)=     -76.327949278     Delta=-1.08D-07
 NORM(A)=   0.10318561D+01
 Iteration Nr.   8
 **********************
 DD1Dir will call FoFMem   1 times, MxPair=        20
 NAB=    10 NAA=     0 NBB=     0.
 A-vector RMS=  2.2064381D-07 Max=  1.1753965D-06 conv= 1.00D-06.
 RLE energy=       -0.2674518799
 DE(Z)= -0.26745195     E(Z)=     -76.327949280     Delta=-2.29D-09
 NORM(A)=   0.10318560D+01
 Iteration Nr.   9
 **********************
 DD1Dir will call FoFMem   1 times, MxPair=        20
 NAB=    10 NAA=     0 NBB=     0.
 A-vector RMS=  5.5449794D-08 Max=  2.7933261D-07 conv= 1.00D-06.
 RLE energy=       -0.2674518826
 DE(Z)= -0.26745189     E(Z)=     -76.327949222     Delta= 5.87D-08
 NORM(A)=   0.10318560D+01
 Iteration Nr.  10
 **********************
 DD1Dir will call FoFMem   1 times, MxPair=        20
 NAB=    10 NAA=     0 NBB=     0.
 A-vector RMS=  2.5891057D-08 Max=  1.4455292D-07 conv= 1.00D-06.
 RLE energy=       -0.2674518794
 DE(Z)= -0.26745189     E(Z)=     -76.327949220     Delta= 1.34D-09
 NORM(A)=   0.10318560D+01
 CI/CC converged in   10 iterations to DelEn= 1.34D-09 Conv= 1.00D-08 ErrA1= 2.59D-08 Conv= 1.00D-06
 Z-amplitudes converged.
 Discarding MO integrals.
 Leave Link  913 at Tue Feb  7 18:42:21 2023, MaxMem=   262144000 cpu:              19.2 elap:               4.8
 (Enter /opt/cluster/programs/g16-c.01/g16/l1111.exe)
 Unit  1 TFree=       2824274 TCopy=        385414.
 Selected functions:
 Compute CCSD 2PDM.
 Form Post-SCF non-separable gradient here.
 IO1PDM=    0 IOW=    0 IO2PDM=    0.
 MDV=     262144000.
 Frozen-core window:  NFC=   1 NFV=   0.
 Leave Link 1111 at Tue Feb  7 18:44:00 2023, MaxMem=   262144000 cpu:             355.5 elap:              98.4
 (Enter /opt/cluster/programs/g16-c.01/g16/l1002.exe)
 Minotr:  Closed shell wavefunction.
          Computing CCSD/QCISD derivatives.
          Using Z-Vector for PSCF gradient.
          Skipping F1 and S1 gradient terms here.
          IDoAtm=111
          Frozen-core window.
          Direct CPHF calculation.
          Differentiating once with respect to electric field.
                with respect to dipole field.
          Differentiating once with respect to nuclear coordinates.
          Using symmetry in CPHF.
          Requested convergence is 1.0D-10 RMS, and 1.0D-09 maximum.
          NewPWx=F KeepS1=T KeepF1=T KeepIn=T MapXYZ=F SortEE=F KeepMc=T.
 Keep R1 ints in memory in symmetry-blocked form, NReq=13819466.
 FoFCou: FMM=F IPFlag=           0 FMFlag=           0 FMFlg1=           0
         NFxFlg=           0 DoJE=F BraDBF=F KetDBF=F FulRan=T
         wScrn=  0.000000 ICntrl=       600 IOpCl=  0 I1Cent=           0 NGrid=           0
         NMat0=    1 NMatS0=   4278 NMatT0=    0 NMatD0=    1 NMtDS0=    0 NMtDT0=    0
 Petite list used in FoFCou.
          MDV=     262144000 using IRadAn=       5.
          Solving linear equations separately, MaxMat=       0.
          There are     1 degrees of freedom in the 1st order CPHF.  IDoFFX=0 NUNeed=     1.
 LinEq1:  Iter=  0 NonCon=     1 RMS=2.84D-03 Max=2.55D-02 NDo=     1
 AX will form     1 AO Fock derivatives at one time.
 LinEq1:  Iter=  1 NonCon=     1 RMS=5.50D-04 Max=5.09D-03 NDo=     1
 LinEq1:  Iter=  2 NonCon=     1 RMS=2.93D-04 Max=3.26D-03 NDo=     1
 LinEq1:  Iter=  3 NonCon=     1 RMS=4.46D-05 Max=2.90D-04 NDo=     1
 LinEq1:  Iter=  4 NonCon=     1 RMS=7.36D-06 Max=4.82D-05 NDo=     1
 LinEq1:  Iter=  5 NonCon=     1 RMS=9.96D-07 Max=7.29D-06 NDo=     1
 LinEq1:  Iter=  6 NonCon=     1 RMS=1.50D-07 Max=1.12D-06 NDo=     1
 LinEq1:  Iter=  7 NonCon=     1 RMS=1.73D-08 Max=1.20D-07 NDo=     1
 LinEq1:  Iter=  8 NonCon=     1 RMS=1.89D-09 Max=1.91D-08 NDo=     1
 LinEq1:  Iter=  9 NonCon=     1 RMS=1.86D-10 Max=1.55D-09 NDo=     1
 LinEq1:  Iter= 10 NonCon=     0 RMS=1.68D-11 Max=1.45D-10 NDo=     1
 Linear equations converged to 1.000D-10 1.000D-09 after    10 iterations.
 End of Minotr F.D. properties file   721 does not exist.
 End of Minotr F.D. properties file   722 does not exist.
 End of Minotr F.D. properties file   788 does not exist.
 Leave Link 1002 at Tue Feb  7 18:44:02 2023, MaxMem=   262144000 cpu:               4.7 elap:               1.3
 (Enter /opt/cluster/programs/g16-c.01/g16/l701.exe)
 ... and contract with generalized density number  7.
 Compute integral first derivatives.
 Leave Link  701 at Tue Feb  7 18:44:03 2023, MaxMem=   262144000 cpu:               0.9 elap:               0.2
 (Enter /opt/cluster/programs/g16-c.01/g16/l702.exe)
 L702 exits ... SP integral derivatives will be done elsewhere.
 Leave Link  702 at Tue Feb  7 18:44:04 2023, MaxMem=   262144000 cpu:               0.2 elap:               0.0
 (Enter /opt/cluster/programs/g16-c.01/g16/l703.exe)
 Integral derivatives from FoFJK, PRISM(SPDF).
 Compute integral first derivatives, UseDBF=F ICtDFT=           0.
 Calling FoFJK, ICntrl=  10002127 FMM=F ISym2X=1 I1Cent= 0 IOpClX= 0 NMat=1 NMatS=1 NMatT=0.
 FoFJK:  IHMeth= 1 ICntrl=10002127 DoSepK=F KAlg= 0 I1Cent=           0 FoldK=F
 IRaf=         0 NMat=       1 IRICut=       1 DoRegI=T DoRafI=F ISym2E= 1 IDoP0=0 IntGTp=1.
 FoFCou: FMM=F IPFlag=           0 FMFlag=      100000 FMFlg1=         800
         NFxFlg=           0 DoJE=F BraDBF=F KetDBF=F FulRan=T
         wScrn=  0.000000 ICntrl=  10002127 IOpCl=  0 I1Cent=           0 NGrid=           0
         NMat0=    1 NMatS0=      1 NMatT0=    0 NMatD0=    1 NMtDS0=    0 NMtDT0=    0
 Petite list used in FoFCou.
 Leave Link  703 at Tue Feb  7 18:44:05 2023, MaxMem=   262144000 cpu:               4.3 elap:               1.1
 (Enter /opt/cluster/programs/g16-c.01/g16/l716.exe)
 Dipole        = 2.14096681D-06-7.32969080D-01 4.15713924D-32
 ***** Axes restored to original set *****
 -------------------------------------------------------------------
 Center     Atomic                   Forces (Hartrees/Bohr)
 Number     Number              X              Y              Z
 -------------------------------------------------------------------
      1        8           0.000026685    0.000000000    0.000004462
      2        1          -0.000015507   -0.000000000    0.000008896
      3        1          -0.000011178   -0.000000000   -0.000013358
 -------------------------------------------------------------------
 Cartesian Forces:  Max     0.000026685 RMS     0.000012270
 Leave Link  716 at Tue Feb  7 18:44:06 2023, MaxMem=   262144000 cpu:               0.2 elap:               0.1
 (Enter /opt/cluster/programs/g16-c.01/g16/l103.exe)

 GradGradGradGradGradGradGradGradGradGradGradGradGradGradGradGradGradGrad
 Berny optimization.
 Using GEDIIS/GDIIS optimizer.
 FormGI is forming the generalized inverse of G from B-inverse, IUseBI=4.
 Internal  Forces:  Max     0.000030217 RMS     0.000018072
 Search for a local minimum.
 Step number   7 out of a maximum of   20
 All quantities printed in internal units (Hartrees-Bohrs-Radians)
 RMS Force = .18072D-04 SwitMx=.10000D-02 MixMth= 2
 Mixed Optimization -- En-DIIS/RFO-DIIS
 Swapping is turned off.
 Update second derivatives using D2CorX and points    3    5    6    7
 DE= -6.34D-07 DEPred=-6.74D-07 R= 9.41D-01
 Trust test= 9.41D-01 RLast= 2.59D-03 DXMaxT set to 2.52D-01
 The second derivative matrix:
                          R1        R2        A1
           R1           0.53324
           R2          -0.00565   0.54298
           A1           0.02364   0.03011   0.15956
 ITU=  0  1  1 -1
     Eigenvalues ---    0.15569   0.53355   0.54655
 En-DIIS/RFO-DIIS/Sim-DIIS IScMMF=       -3 using points:     7    6
 RFO step:  Lambda= 0.00000000D+00.
 NNeg= 0 NGDIIS= 2 SimSw=  2.50D-01 Rises=F DC= -6.34D-07 SmlDif=  1.00D-05
 NRisDI= 0 DoIntr=F SqrtH=F CThrHd= 10.0 CDAdj=  3.0
 RMS Error=  0.1118284740D-03 NUsed= 2 OKEnD=F EnDIS=F
 InvSVX:  RCond= 7.52D-06 Info=           0 Equed=N FErr=  9.49D-16 BErr=  0.00D+00
 DidBck=F Rises=F RFO-DIIS coefs:    0.93282    0.06718
 Iteration  1 RMS(Cart)=  0.00010631 RMS(Int)=  0.00000001
 Iteration  2 RMS(Cart)=  0.00000001 RMS(Int)=  0.00000000
 ITry= 1 IFail=0 DXMaxC= 1.09D-04 DCOld= 1.00D+10 DXMaxT= 2.52D-01 DXLimC= 3.00D+00 Rises=F
 ClnCor:  largest displacement from symmetrization is 3.14D-16 for atom     3.
 Variable       Old X    -DE/DX   Delta X   Delta X   Delta X     New X
                                 (Linear)    (Quad)   (Total)
    R1        1.81188   0.00001  -0.00007   0.00008   0.00000   1.81189
    R2        1.81190  -0.00001  -0.00003   0.00001  -0.00002   1.81188
    A1        1.82242   0.00003   0.00015   0.00004   0.00019   1.82261
         Item               Value     Threshold  Converged?
 Maximum Force            0.000030     0.000450     YES
 RMS     Force            0.000018     0.000300     YES
 Maximum Displacement     0.000109     0.001800     YES
 RMS     Displacement     0.000106     0.001200     YES
 Predicted change in Energy=-2.971244D-09
 Optimization completed.
    -- Stationary point found.
                           ----------------------------
                           !   Optimized Parameters   !
                           ! (Angstroms and Degrees)  !
 --------------------------                            --------------------------
 ! Name  Definition              Value          Derivative Info.                !
 --------------------------------------------------------------------------------
 ! R1    R(1,2)                  0.9588         -DE/DX =    0.0                 !
 ! R2    R(1,3)                  0.9588         -DE/DX =    0.0                 !
 ! A1    A(2,1,3)              104.417          -DE/DX =    0.0                 !
 --------------------------------------------------------------------------------
 Lowest energy point so far.  Saving SCF results.
 Largest change from initial coordinates is atom    2       0.343 Angstoms.
 GradGradGradGradGradGradGradGradGradGradGradGradGradGradGradGradGradGrad

 Leave Link  103 at Tue Feb  7 18:44:07 2023, MaxMem=   262144000 cpu:               0.1 elap:               0.0
 (Enter /opt/cluster/programs/g16-c.01/g16/l202.exe)
                          Input orientation:                          
 ---------------------------------------------------------------------
 Center     Atomic      Atomic             Coordinates (Angstroms)
 Number     Number       Type             X           Y           Z
 ---------------------------------------------------------------------
      1          8           0        0.002746   -0.000000    0.039302
      2          1           0        0.148276    0.000000    0.987001
      3          1           0        0.884378    0.000000   -0.337603
 ---------------------------------------------------------------------
                    Distance matrix (angstroms):
                    1          2          3
     1  O    0.000000
     2  H    0.958807   0.000000
     3  H    0.958818   1.515395   0.000000
 Stoichiometry    H2O
 Framework group  CS[SG(H2O)]
 Deg. of freedom     3
 Full point group                 CS      NOp   2
 RotChk:  IX=0 Diff= 1.74D-15
 Largest Abelian subgroup         CS      NOp   2
 Largest concise Abelian subgroup C1      NOp   1
                         Standard orientation:                         
 ---------------------------------------------------------------------
 Center     Atomic      Atomic             Coordinates (Angstroms)
 Number     Number       Type             X           Y           Z
 ---------------------------------------------------------------------
      1          8           0        0.000000    0.117510    0.000000
      2          1           0        0.757697   -0.470032   -0.000000
      3          1           0       -0.757697   -0.470050    0.000000
 ---------------------------------------------------------------------
 Rotational constants (GHZ):         817.8177237         436.7274096         284.6955494
 Leave Link  202 at Tue Feb  7 18:44:07 2023, MaxMem=   262144000 cpu:               0.0 elap:               0.0
 (Enter /opt/cluster/programs/g16-c.01/g16/l601.exe)
 Copying SCF densities to generalized density rwf, IOpCl= 0 IROHF=0.

 **********************************************************************

            Population analysis using the SCF Density.

 **********************************************************************

 Orbital symmetries:
       Occupied  (A') (A') (A') (A') (A")
       Virtual   (A') (A') (A') (A") (A') (A') (A') (A') (A") (A")
                 (A') (A') (A') (A') (A') (A') (A') (A") (A") (A')
                 (A") (A') (A') (A") (A") (A') (A') (A') (A') (A")
                 (A') (A") (A') (A') (A") (A') (A") (A') (A') (A')
                 (A') (A") (A") (A') (A') (A") (A') (A') (A') (A")
                 (A') (A') (A") (A') (A') (A") (A") (A') (A') (A")
                 (A') (A") (A") (A') (A') (A') (A') (A") (A') (A')
                 (A") (A') (A') (A') (A") (A') (A") (A") (A') (A")
                 (A') (A") (A') (A') (A') (A') (A')
 The electronic state is 1-A'.
 Alpha  occ. eigenvalues --  -20.56751  -1.35286  -0.71679  -0.58484  -0.51026
 Alpha virt. eigenvalues --    0.02942   0.04768   0.13594   0.15861   0.17518
 Alpha virt. eigenvalues --    0.18300   0.22746   0.24500   0.26530   0.30045
 Alpha virt. eigenvalues --    0.31042   0.36582   0.43786   0.46652   0.59953
 Alpha virt. eigenvalues --    0.65841   0.70829   0.72237   0.73159   0.83104
 Alpha virt. eigenvalues --    0.84632   0.89159   0.91300   0.91838   0.92252
 Alpha virt. eigenvalues --    0.93078   0.96225   1.02193   1.04404   1.08297
 Alpha virt. eigenvalues --    1.10923   1.17647   1.18220   1.26003   1.51104
 Alpha virt. eigenvalues --    1.53680   1.58486   1.80358   1.81977   1.98800
 Alpha virt. eigenvalues --    2.11910   2.26268   2.31635   2.32586   2.41862
 Alpha virt. eigenvalues --    2.42061   2.44265   2.47892   2.67628   2.69768
 Alpha virt. eigenvalues --    2.77250   2.81876   2.88511   3.65523   3.74647
 Alpha virt. eigenvalues --    4.01828   4.08563   4.16864   4.24906   4.29178
 Alpha virt. eigenvalues --    4.37618   4.37834   4.40641   4.51728   4.72611
 Alpha virt. eigenvalues --    4.84719   5.14905   5.15494   5.25712   5.33198
 Alpha virt. eigenvalues --    5.52665   5.66932   6.17800   6.51391   6.70964
 Alpha virt. eigenvalues --    6.89861   7.13401   7.25328   7.30988   7.31561
 Alpha virt. eigenvalues --    7.32603   7.35610   7.53863   7.90410   7.92725
 Alpha virt. eigenvalues --    8.80924  15.78490
          Condensed to atoms (all electrons):
               1          2          3
     1  O    7.898152   0.271293   0.271293
     2  H    0.271293   0.489803   0.018541
     3  H    0.271293   0.018541   0.489792
 Mulliken charges:
               1
     1  O   -0.440738
     2  H    0.220364
     3  H    0.220374
 Sum of Mulliken charges =  -0.00000
 Mulliken charges with hydrogens summed into heavy atoms:
               1
     1  O   -0.000000
 Electronic spatial extent (au):  <R**2>=             19.4923
 Charge=             -0.0000 electrons
 Dipole moment (field-independent basis, Debye):
    X=              0.0000    Y=             -1.9854    Z=              0.0000  Tot=              1.9854
 Quadrupole moment (field-independent basis, Debye-Ang):
   XX=             -4.2458   YY=             -6.2424   ZZ=             -7.5615
   XY=              0.0000   XZ=              0.0000   YZ=              0.0000
 Traceless Quadrupole moment (field-independent basis, Debye-Ang):
   XX=              1.7707   YY=             -0.2258   ZZ=             -1.5449
   XY=              0.0000   XZ=              0.0000   YZ=              0.0000
 Octapole moment (field-independent basis, Debye-Ang**2):
  XXX=              0.0000  YYY=             -1.1433  ZZZ=              0.0000  XYY=             -0.0000
  XXY=             -1.4087  XXZ=             -0.0000  XZZ=              0.0000  YZZ=             -0.2535
  YYZ=              0.0000  XYZ=             -0.0000
 Hexadecapole moment (field-independent basis, Debye-Ang**3):
 XXXX=             -5.9683 YYYY=             -7.2480 ZZZZ=             -6.7323 XXXY=             -0.0000
 XXXZ=              0.0000 YYYX=              0.0000 YYYZ=              0.0000 ZZZX=              0.0000
 ZZZY=              0.0000 XXYY=             -1.8527 XXZZ=             -2.4462 YYZZ=             -2.3803
 XXYZ=              0.0000 YYXZ=              0.0000 ZZXY=             -0.0000
 N-N= 9.179744328875D+00 E-N=-1.989686050982D+02  KE= 7.595264744227D+01
 Symmetry A'   KE= 7.148613680492D+01
 Symmetry A"   KE= 4.466510637347D+00
 No NMR shielding tensors so no spin-rotation constants.
 Leave Link  601 at Tue Feb  7 18:44:08 2023, MaxMem=   262144000 cpu:               0.6 elap:               0.2
 (Enter /opt/cluster/programs/g16-c.01/g16/l9999.exe)
 Unable to Open any file for archive entry.
 1\1\GINC-NODE57\FOpt\RCCSD-FC\Aug-CC-pVTZ\H2O1\TOEPFER\07-Feb-2023\0\\
 #P CCSD/aug-cc-pVTZ scf(maxcycle=200) opt\\Water opt\\0,1\O,0.00274633
 42,0.,0.0393024116\H,0.1482758303,0.,0.9870007133\H,0.8843778355,0.,-0
 .3376031249\\Version=ES64L-G16RevC.01\State=1-A'\HF=-76.0604973\MP2=-7
 6.3289792\MP3=-76.3316353\MP4D=-76.3363211\MP4DQ=-76.3322612\MP4SDQ=-7
 6.3341499\CCSD=-76.3336701\RMSD=2.651e-09\RMSF=1.227e-05\Dipole=0.6406
 901,0.,0.3560336\PG=CS [SG(H2O1)]\\@
 The archive entry for this job was punched.


 WE SHOULD BE CAREFUL TO GET OUT OF AN EXPERIENCE ONLY THE WISDOM
 THAT IS IN IT -- AND STOP THERE;
 LEST WE BE LIKE THE CAT THAT SITS DOWN ON A HOT STOVE-LID.
 SHE WILL NEVER SIT DOWN ON A HOT STOVE LID AGAIN;
 BUT ALSO SHE WILL NEVER SIT DOWN ON A COLD ONE ANY MORE.

                                                     -- MARK TWAIN
 Job cpu time:       0 days  0 hours 46 minutes  9.5 seconds.
 Elapsed time:       0 days  0 hours 12 minutes 34.9 seconds.
 File lengths (MBytes):  RWF=   1358 Int=      0 D2E=      0 Chk=      2 Scr=      1
 Normal termination of Gaussian 16 at Tue Feb  7 18:44:09 2023.
