    6
 HF/aug-cc-pVDZ Energy:   -152.078051512252
 OH2         0.0000000000        0.0000000000        0.0000000000
 H1         0.0000000000        0.0000000000        0.9700000000
 H1         0.0000000000        0.9391032112       -0.2428686039
 OH2         0.4650380451       -1.7355456118        3.3724198313
 H1         0.7143302102       -2.6659166379        3.2576889715
 H1         0.3661081813       -1.3663343335        4.2639331033
