    6
 HF/aug-cc-pVDZ Energy:   -152.077933276121
 OH2         0.0000000000        0.0000000000        0.0000000000
 H1         0.0000000000        0.0000000000        0.9700000000
 H1         0.0000000000        0.9391032112       -0.2428686039
 OH2         1.0161494904       -0.5866741818        4.0008008211
 H1         1.8462233674       -1.0659175582        4.1498080189
 H1         0.4893571537       -0.2825304844        4.7563710993
