    6
 HF/aug-cc-pVDZ Energy:   -152.076293837273
 OH2         0.0000000000        0.0000000000        0.0000000000
 H1         0.0000000000        0.0000000000        0.9700000000
 H1         0.0000000000        0.9391032112       -0.2428686039
 OH2         0.0000000000       -2.6019234401        4.3304306884
 H1         0.0000000000       -3.5630633606        4.1996252860
 H1         0.0000000000       -2.2346342813        5.2282049773
