    6
 HF/aug-cc-pVDZ Energy:   -152.075952995082
 OH2         0.0000000000        0.0000000000        0.0000000000
 H1         0.0000000000        0.0000000000        0.9700000000
 H1         0.0000000000        0.9391032112       -0.2428686039
 OH2         0.7750634085       -2.8925760197        4.9740330522
 H1         1.0243555736       -3.8229470458        4.8593021924
 H1         0.6761335447       -2.5233647414        5.8655463241
