    6
 HF/aug-cc-pVDZ Energy:   -152.075669373658
 OH2         0.0000000000        0.0000000000        0.0000000000
 H1         0.0000000000        0.0000000000        0.9700000000
 H1         0.0000000000        0.9391032112       -0.2428686039
 OH2         2.3770403547       -2.3770403547        7.1099803179
 H1         3.0627575881       -3.0627575881        7.1319746765
 H1         2.0207129991       -2.0207129991        7.9388118033
