    6
 HF/aug-cc-pVDZ Energy:   -152.075530146532
 OH2         0.0000000000        0.0000000000        0.0000000000
 H1         0.0000000000        0.0000000000        0.9700000000
 H1         0.0000000000        0.9391032112       -0.2428686039
 OH2         1.3951141353       -5.2066368354        8.1772594940
 H1         1.6444063004       -6.1370078615        8.0625286342
 H1         1.2961842715       -4.8374255571        9.0687727659
