    6
 HF/aug-cc-pVDZ Energy:   -151.938208891280
 OH2         0.0000000000        0.0000000000        0.0000000000
 H1         0.0000000000        0.0000000000        0.9700000000
 H1         0.0000000000        0.9391032112       -0.2428686039
 OH2         0.1550126817       -0.5785152039        1.7708066104
 H1         0.4043048468       -1.5088862300        1.6560757507
 H1         0.0560828178       -0.2093039256        2.6623198824
