    6
 HF/aug-cc-pVDZ Energy:   -152.035243607168
 OH2         0.0000000000        0.0000000000        0.0000000000
 H1         0.0000000000        0.0000000000        0.9700000000
 H1         0.0000000000        0.9391032112       -0.2428686039
 OH2         0.4244714919       -0.4244714919        2.0664250568
 H1         1.1101887253       -1.1101887253        2.0884194154
 H1         0.0681441363       -0.0681441363        2.8952565422
