    6
 HF/aug-cc-pVDZ Energy:   -152.066606491480
 OH2         0.0000000000        0.0000000000        0.0000000000
 H1         0.0000000000        0.0000000000        0.9700000000
 H1         0.0000000000        0.9391032112       -0.2428686039
 OH2         0.5093657903       -0.5093657903        2.2857100681
 H1         1.1950830236       -1.1950830236        2.3077044267
 H1         0.1530384347       -0.1530384347        3.1145415536
