    6
 HF/aug-cc-pVDZ Energy:   -152.078566599946
 OH2         0.0000000000        0.0000000000        0.0000000000
 H1         0.0000000000        0.0000000000        0.9700000000
 H1         0.0000000000        0.9391032112       -0.2428686039
 OH2         0.5471574179       -0.3159014825        2.6019696729
 H1         1.3772312949       -0.7951448589        2.7509768706
 H1         0.0203650811       -0.0117577851        3.3575399511
