    6
 HF/aug-cc-pVDZ Energy:   -152.077473661436
 OH2         0.0000000000        0.0000000000        0.0000000000
 H1         0.0000000000        0.0000000000        0.9700000000
 H1         0.0000000000        0.9391032112       -0.2428686039
 OH2         0.5942600887       -0.5942600887        2.5049950795
 H1         1.2799773220       -1.2799773220        2.5269894381
 H1         0.2379327331       -0.2379327331        3.3338265649
