    6
 HF/aug-cc-pVDZ Energy:   -152.080587949100
 OH2         0.0000000000        0.0000000000        0.0000000000
 H1         0.0000000000        0.0000000000        0.9700000000
 H1         0.0000000000        0.9391032112       -0.2428686039
 OH2         0.7640486854       -0.7640486854        2.9435651022
 H1         1.4497659188       -1.4497659188        2.9655594608
 H1         0.4077213298       -0.4077213298        3.7723965876
