    6
 HF/aug-cc-pVDZ Energy:   -152.078546868449
 OH2         0.0000000000        0.0000000000        0.0000000000
 H1         0.0000000000        0.0000000000        0.9700000000
 H1         0.0000000000        0.9391032112       -0.2428686039
 OH2         0.9379841450       -0.5415453986        3.7676622964
 H1         1.7680580220       -1.0207887749        3.9166694941
 H1         0.4111918082       -0.2374017012        4.5232325746
