    6
 HF/aug-cc-pVDZ Energy:   -152.077456865580
 OH2         0.0000000000        0.0000000000        0.0000000000
 H1         0.0000000000        0.0000000000        0.9700000000
 H1         0.0000000000        0.9391032112       -0.2428686039
 OH2         1.0943148358       -0.6318029651        4.2339393459
 H1         1.9243887128       -1.1110463414        4.3829465436
 H1         0.5675224991       -0.3276592676        4.9895096240
