    6
 HF/aug-cc-pVDZ Energy:   -152.076584234188
 OH2         0.0000000000        0.0000000000        0.0000000000
 H1         0.0000000000        0.0000000000        0.9700000000
 H1         0.0000000000        0.9391032112       -0.2428686039
 OH2         1.3288108721       -0.7671893147        4.9333549200
 H1         2.1588847491       -1.2464326910        5.0823621177
 H1         0.8020185353       -0.4630456173        5.6889251981
