    6
 HF/aug-cc-pVDZ Energy:   -152.075707861374
 OH2         0.0000000000        0.0000000000        0.0000000000
 H1         0.0000000000        0.0000000000        0.9700000000
 H1         0.0000000000        0.9391032112       -0.2428686039
 OH2         2.1886296717       -1.2636059301        7.4978786917
 H1         3.0187035487       -1.7428493064        7.6468858894
 H1         1.6618373349       -0.9594622327        8.2534489698
