    6
 HF/aug-cc-pVDZ Energy:   -152.075976841680
 OH2         0.0000000000        0.0000000000        0.0000000000
 H1         0.0000000000        0.0000000000        0.9700000000
 H1         0.0000000000        0.9391032112       -0.2428686039
 OH2         1.7827802660       -1.7827802660        5.5749852384
 H1         2.4684974994       -2.4684974994        5.5969795970
 H1         1.4264529104       -1.4264529104        6.4038167239
