    6
 HF/aug-cc-pVDZ Energy:   -151.936493579595
 OH2         0.0000000000        0.0000000000        0.0000000000
 H1         0.0000000000        0.0000000000        0.9700000000
 H1         0.0000000000        0.9391032112       -0.2428686039
 OH2         0.0000000000       -0.6122172800        1.7606895737
 H1         0.0000000000       -1.5733572005        1.6298841714
 H1         0.0000000000       -0.2449281212        2.6584638626
