    6
 HF/aug-cc-pVDZ Energy:   -152.075803950219
 OH2         0.0000000000        0.0000000000        0.0000000000
 H1         0.0000000000        0.0000000000        0.9700000000
 H1         0.0000000000        0.9391032112       -0.2428686039
 OH2         0.0000000000       -3.3671950402        5.3187926556
 H1         0.0000000000       -4.3283349607        5.1879872532
 H1         0.0000000000       -2.9999058814        6.2165669445
