    6
 HF/aug-cc-pVDZ Energy:   -152.039309952852
 OH2         0.0000000000        0.0000000000        0.0000000000
 H1         0.0000000000        0.0000000000        0.9700000000
 H1         0.0000000000        0.9391032112       -0.2428686039
 OH2         0.3908267271       -0.2256439161        2.1356926235
 H1         1.2209006041       -0.7048872924        2.2846998212
 H1        -0.1359656097        0.0784997814        2.8912629017
