    6
 HF/aug-cc-pVDZ Energy:   -152.063788799843
 OH2         0.0000000000        0.0000000000        0.0000000000
 H1         0.0000000000        0.0000000000        0.9700000000
 H1         0.0000000000        0.9391032112       -0.2428686039
 OH2         0.2325190226       -0.8677728059        2.1712099157
 H1         0.4818111877       -1.7981438320        2.0564790559
 H1         0.1335891587       -0.4985615276        3.0627231876
