    6
 HF/aug-cc-pVDZ Energy:   -152.063432818841
 OH2         0.0000000000        0.0000000000        0.0000000000
 H1         0.0000000000        0.0000000000        0.9700000000
 H1         0.0000000000        0.9391032112       -0.2428686039
 OH2         0.0000000000       -0.9183259201        2.1560343606
 H1         0.0000000000       -1.8794658405        2.0252289583
 H1         0.0000000000       -0.5510367612        3.0538086495
