    6
 HF/aug-cc-pVDZ Energy:   -152.076066113725
 OH2         0.0000000000        0.0000000000        0.0000000000
 H1         0.0000000000        0.0000000000        0.9700000000
 H1         0.0000000000        0.9391032112       -0.2428686039
 OH2         0.2712721930       -1.0124016069        2.3714115683
 H1         0.5205643581       -1.9427726330        2.2566807085
 H1         0.1723423291       -0.6431903286        3.2629248402
