    6
 HF/aug-cc-pVDZ Energy:   -152.080008107729
 OH2         0.0000000000        0.0000000000        0.0000000000
 H1         0.0000000000        0.0000000000        0.9700000000
 H1         0.0000000000        0.9391032112       -0.2428686039
 OH2         0.0000000000       -1.3774888801        2.7490515409
 H1         0.0000000000       -2.3386288005        2.6182461386
 H1         0.0000000000       -1.0101997212        3.6468258298
