    6
 HF/aug-cc-pVDZ Energy:   -152.079461842899
 OH2         0.0000000000        0.0000000000        0.0000000000
 H1         0.0000000000        0.0000000000        0.9700000000
 H1         0.0000000000        0.9391032112       -0.2428686039
 OH2         0.0000000000       -1.5305432001        2.9467239344
 H1         0.0000000000       -2.4916831206        2.8159185320
 H1         0.0000000000       -1.1632540413        3.8444982233
