    6
 HF/aug-cc-pVDZ Energy:   -152.078703213237
 OH2         0.0000000000        0.0000000000        0.0000000000
 H1         0.0000000000        0.0000000000        0.9700000000
 H1         0.0000000000        0.9391032112       -0.2428686039
 OH2         0.0000000000       -1.6835975201        3.1443963278
 H1         0.0000000000       -2.6447374406        3.0135909254
 H1         0.0000000000       -1.3163083613        4.0421706167
