 Entering Gaussian System, Link 0=/opt/cluster/programs/g16-c.01/g16/g16
 Input=/scratch/boittier/jobs/tmp.7312080/gaussian_72_water_hf_adz.com
 Output=/scratch/boittier/jobs/tmp.7312080/gaussian_72_water_hf_adz.out
 Initial command:
 /opt/cluster/programs/g16-c.01/g16/l1.exe "/scratch/boittier/jobs/tmp.7312080/Gau-162209.inp" -scrdir="/scratch/boittier/jobs/tmp.7312080/"
 Entering Link 1 = /opt/cluster/programs/g16-c.01/g16/l1.exe PID=    162211.
  
 Copyright (c) 1988-2019, Gaussian, Inc.  All Rights Reserved.
  
 This is part of the Gaussian(R) 16 program.  It is based on
 the Gaussian(R) 09 system (copyright 2009, Gaussian, Inc.),
 the Gaussian(R) 03 system (copyright 2003, Gaussian, Inc.),
 the Gaussian(R) 98 system (copyright 1998, Gaussian, Inc.),
 the Gaussian(R) 94 system (copyright 1995, Gaussian, Inc.),
 the Gaussian 92(TM) system (copyright 1992, Gaussian, Inc.),
 the Gaussian 90(TM) system (copyright 1990, Gaussian, Inc.),
 the Gaussian 88(TM) system (copyright 1988, Gaussian, Inc.),
 the Gaussian 86(TM) system (copyright 1986, Carnegie Mellon
 University), and the Gaussian 82(TM) system (copyright 1983,
 Carnegie Mellon University). Gaussian is a federally registered
 trademark of Gaussian, Inc.
  
 This software contains proprietary and confidential information,
 including trade secrets, belonging to Gaussian, Inc.
  
 This software is provided under written license and may be
 used, copied, transmitted, or stored only in accord with that
 written license.
  
 The following legend is applicable only to US Government
 contracts under FAR:
  
                    RESTRICTED RIGHTS LEGEND
  
 Use, reproduction and disclosure by the US Government is
 subject to restrictions as set forth in subparagraphs (a)
 and (c) of the Commercial Computer Software - Restricted
 Rights clause in FAR 52.227-19.
  
 Gaussian, Inc.
 340 Quinnipiac St., Bldg. 40, Wallingford CT 06492
  
  
 ---------------------------------------------------------------
 Warning -- This program may not be used in any manner that
 competes with the business of Gaussian, Inc. or will provide
 assistance to any competitor of Gaussian, Inc.  The licensee
 of this program is prohibited from giving any competitor of
 Gaussian, Inc. access to this program.  By using this program,
 the user acknowledges that Gaussian, Inc. is engaged in the
 business of creating and licensing software in the field of
 computational chemistry and represents and warrants to the
 licensee that it is not a competitor of Gaussian, Inc. and that
 it will not use this program in any manner prohibited above.
 ---------------------------------------------------------------
  

 Cite this work as:
 Gaussian 16, Revision C.01,
 M. J. Frisch, G. W. Trucks, H. B. Schlegel, G. E. Scuseria, 
 M. A. Robb, J. R. Cheeseman, G. Scalmani, V. Barone, 
 G. A. Petersson, H. Nakatsuji, X. Li, M. Caricato, A. V. Marenich, 
 J. Bloino, B. G. Janesko, R. Gomperts, B. Mennucci, H. P. Hratchian, 
 J. V. Ortiz, A. F. Izmaylov, J. L. Sonnenberg, D. Williams-Young, 
 F. Ding, F. Lipparini, F. Egidi, J. Goings, B. Peng, A. Petrone, 
 T. Henderson, D. Ranasinghe, V. G. Zakrzewski, J. Gao, N. Rega, 
 G. Zheng, W. Liang, M. Hada, M. Ehara, K. Toyota, R. Fukuda, 
 J. Hasegawa, M. Ishida, T. Nakajima, Y. Honda, O. Kitao, H. Nakai, 
 T. Vreven, K. Throssell, J. A. Montgomery, Jr., J. E. Peralta, 
 F. Ogliaro, M. J. Bearpark, J. J. Heyd, E. N. Brothers, K. N. Kudin, 
 V. N. Staroverov, T. A. Keith, R. Kobayashi, J. Normand, 
 K. Raghavachari, A. P. Rendell, J. C. Burant, S. S. Iyengar, 
 J. Tomasi, M. Cossi, J. M. Millam, M. Klene, C. Adamo, R. Cammi, 
 J. W. Ochterski, R. L. Martin, K. Morokuma, O. Farkas, 
 J. B. Foresman, and D. J. Fox, Gaussian, Inc., Wallingford CT, 2019.
 
 ******************************************
 Gaussian 16:  ES64L-G16RevC.01  3-Jul-2019
                20-Feb-2023 
 ******************************************
 %nproc=4
 Will use up to    4 processors via shared memory.
 %mem=5760MB
 %chk=gaussian_72_water_hf_adz.chk
 -----------------------------------
 #P HF/aug-cc-pVDZ scf(maxcycle=200)
 -----------------------------------
 1/38=1,172=1/1;
 2/12=2,17=6,18=5,40=1/2;
 3/5=16,7=10,11=9,25=1,30=1/1,2,3;
 4//1;
 5/5=2,7=200,38=5/2;
 6/7=2,8=2,9=2,10=2,28=1/1;
 99/5=1,9=1/99;
 Leave Link    1 at Mon Feb 20 10:27:44 2023, MaxMem=   754974720 cpu:               0.1 elap:               0.0
 (Enter /opt/cluster/programs/g16-c.01/g16/l101.exe)
 --------------
 Gaussian input
 --------------
 Symbolic Z-matrix:
 Charge =  0 Multiplicity = 1
 O                     0.        0.11751   0. 
 H                     0.75785  -0.47015   0. 
 H                    -0.75573  -0.38762   0. 
 
 ITRead=  0  0  0
 MicOpt= -1 -1 -1
 NAtoms=      3 NQM=        3 NQMF=       0 NMMI=      0 NMMIF=      0
                NMic=       0 NMicF=      0.
                    Isotopes and Nuclear Properties:
 (Nuclear quadrupole moments (NQMom) in fm**2, nuclear magnetic moments (NMagM)
  in nuclear magnetons)

  Atom         1           2           3
 IAtWgt=          16           1           1
 AtmWgt=  15.9949146   1.0078250   1.0078250
 NucSpn=           0           1           1
 AtZEff=  -0.0000000  -0.0000000  -0.0000000
 NQMom=    0.0000000   0.0000000   0.0000000
 NMagM=    0.0000000   2.7928460   2.7928460
 AtZNuc=   8.0000000   1.0000000   1.0000000
 Leave Link  101 at Mon Feb 20 10:27:44 2023, MaxMem=   754974720 cpu:               0.6 elap:               0.2
 (Enter /opt/cluster/programs/g16-c.01/g16/l202.exe)
                          Input orientation:                          
 ---------------------------------------------------------------------
 Center     Atomic      Atomic             Coordinates (Angstroms)
 Number     Number       Type             X           Y           Z
 ---------------------------------------------------------------------
      1          8           0        0.000000    0.117510    0.000000
      2          1           0        0.757850   -0.470150    0.000000
      3          1           0       -0.755728   -0.387620    0.000000
 ---------------------------------------------------------------------
                    Distance matrix (angstroms):
                    1          2          3
     1  O    0.000000
     2  H    0.959000   0.000000
     3  H    0.909000   1.515826   0.000000
 Stoichiometry    H2O
 Framework group  CS[SG(H2O)]
 Deg. of freedom     3
 Full point group                 CS      NOp   2
 Largest Abelian subgroup         CS      NOp   2
 Largest concise Abelian subgroup C1      NOp   1
                         Standard orientation:                         
 ---------------------------------------------------------------------
 Center     Atomic      Atomic             Coordinates (Angstroms)
 Number     Number       Type             X           Y           Z
 ---------------------------------------------------------------------
      1          8           0        0.000000    0.109279   -0.000000
      2          1           0        0.756707   -0.479852   -0.000000
      3          1           0       -0.756707   -0.394383    0.000000
 ---------------------------------------------------------------------
 Rotational constants (GHZ):         951.2412279         435.2987820         298.6384417
 Leave Link  202 at Mon Feb 20 10:27:44 2023, MaxMem=   754974720 cpu:               0.1 elap:               0.0
 (Enter /opt/cluster/programs/g16-c.01/g16/l301.exe)
 Standard basis: Aug-CC-pVDZ (5D, 7F)
 Ernie: Thresh=  0.10000D-02 Tol=  0.10000D-05 Strict=F.
 Ernie:  2 primitive shells out of 39 were deleted.
 There are    32 symmetry adapted cartesian basis functions of A'  symmetry.
 There are    11 symmetry adapted cartesian basis functions of A"  symmetry.
 There are    30 symmetry adapted basis functions of A'  symmetry.
 There are    11 symmetry adapted basis functions of A"  symmetry.
    41 basis functions,    65 primitive gaussians,    43 cartesian basis functions
     5 alpha electrons        5 beta electrons
       nuclear repulsion energy         9.4207352330 Hartrees.
 IExCor=    0 DFT=F Ex=HF Corr=None ExCW=0 ScaHFX=  1.000000
 ScaDFX=  1.000000  1.000000  1.000000  1.000000 ScalE2=  1.000000  1.000000
 IRadAn=      5 IRanWt=     -1 IRanGd=            0 ICorTp=0 IEmpDi=  4
 NAtoms=    3 NActive=    3 NUniq=    3 SFac= 1.00D+00 NAtFMM=   60 NAOKFM=F Big=F
 Integral buffers will be    131072 words long.
 Raffenetti 1 integral format.
 Two-electron integral symmetry is turned on.
 Leave Link  301 at Mon Feb 20 10:27:45 2023, MaxMem=   754974720 cpu:               0.1 elap:               0.1
 (Enter /opt/cluster/programs/g16-c.01/g16/l302.exe)
 NPDir=0 NMtPBC=     1 NCelOv=     1 NCel=       1 NClECP=     1 NCelD=      1
         NCelK=      1 NCelE2=     1 NClLst=     1 CellRange=     0.0.
 One-electron integrals computed using PRISM.
 One-electron integral symmetry used in STVInt
 NBasis=    41 RedAO= T EigKep=  2.52D-03  NBF=    30    11
 NBsUse=    41 1.00D-06 EigRej= -1.00D+00 NBFU=    30    11
 Leave Link  302 at Mon Feb 20 10:27:45 2023, MaxMem=   754974720 cpu:               0.9 elap:               0.3
 (Enter /opt/cluster/programs/g16-c.01/g16/l303.exe)
 DipDrv:  MaxL=1.
 Leave Link  303 at Mon Feb 20 10:27:45 2023, MaxMem=   754974720 cpu:               0.1 elap:               0.0
 (Enter /opt/cluster/programs/g16-c.01/g16/l401.exe)
 ExpMin= 2.97D-02 ExpMax= 1.17D+04 ExpMxC= 4.01D+02 IAcc=3 IRadAn=         5 AccDes= 0.00D+00
 Harris functional with IExCor=  205 and IRadAn=       5 diagonalized for initial guess.
 HarFok:  IExCor=  205 AccDes= 0.00D+00 IRadAn=         5 IDoV= 1 UseB2=F ITyADJ=14
 ICtDFT=  3500011 ScaDFX=  1.000000  1.000000  1.000000  1.000000
 FoFCou: FMM=F IPFlag=           0 FMFlag=      100000 FMFlg1=           0
         NFxFlg=           0 DoJE=T BraDBF=F KetDBF=T FulRan=T
         wScrn=  0.000000 ICntrl=       500 IOpCl=  0 I1Cent=   200000004 NGrid=           0
         NMat0=    1 NMatS0=      1 NMatT0=    0 NMatD0=    1 NMtDS0=    0 NMtDT0=    0
 Petite list used in FoFCou.
 Harris En= -76.1245417713256    
 JPrj=0 DoOrth=F DoCkMO=F.
 Initial guess orbital symmetries:
       Occupied  (A') (A') (A') (A') (A")
       Virtual   (A') (A') (A') (A") (A') (A') (A') (A') (A") (A')
                 (A") (A') (A') (A') (A') (A') (A") (A') (A") (A')
                 (A") (A') (A') (A') (A") (A") (A') (A') (A') (A')
                 (A') (A") (A') (A") (A') (A')
 The electronic state of the initial guess is 1-A'.
 Leave Link  401 at Mon Feb 20 10:27:45 2023, MaxMem=   754974720 cpu:               0.6 elap:               0.2
 (Enter /opt/cluster/programs/g16-c.01/g16/l502.exe)
 Keep R1 ints in memory in symmetry-blocked form, NReq=1210696.
 FoFCou: FMM=F IPFlag=           0 FMFlag=           0 FMFlg1=           0
         NFxFlg=           0 DoJE=F BraDBF=F KetDBF=F FulRan=T
         wScrn=  0.000000 ICntrl=       600 IOpCl=  0 I1Cent=           0 NGrid=           0
         NMat0=    1 NMatS0=    861 NMatT0=    0 NMatD0=    1 NMtDS0=    0 NMtDT0=    0
 Petite list used in FoFCou.
 Closed shell SCF:
 Using DIIS extrapolation, IDIIS=  1040.
 NGot=   754974720 LenX=   754771907 LenY=   754769617
 Requested convergence on RMS density matrix=1.00D-08 within 200 cycles.
 Requested convergence on MAX density matrix=1.00D-06.
 Requested convergence on             energy=1.00D-06.
 No special actions if energy rises.

 Cycle   1  Pass 1  IDiag  1:
 E= -75.9604226040134    
 DIIS: error= 5.23D-02 at cycle   1 NSaved=   1.
 NSaved= 1 IEnMin= 1 EnMin= -75.9604226040134     IErMin= 1 ErrMin= 5.23D-02
 ErrMax= 5.23D-02  0.00D+00 EMaxC= 1.00D-01 BMatC= 1.22D-01 BMatP= 1.22D-01
 IDIUse=3 WtCom= 4.77D-01 WtEn= 5.23D-01
 Coeff-Com:  0.100D+01
 Coeff-En:   0.100D+01
 Coeff:      0.100D+01
 Gap=     0.456 Goal=   None    Shift=    0.000
 GapD=    0.456 DampG=2.000 DampE=0.500 DampFc=1.0000 IDamp=-1.
 RMSDP=6.42D-03 MaxDP=1.21D-01              OVMax= 1.19D-01

 Cycle   2  Pass 1  IDiag  1:
 E= -76.0082824891872     Delta-E=       -0.047859885174 Rises=F Damp=F
 DIIS: error= 3.93D-02 at cycle   2 NSaved=   2.
 NSaved= 2 IEnMin= 2 EnMin= -76.0082824891872     IErMin= 2 ErrMin= 3.93D-02
 ErrMax= 3.93D-02  0.00D+00 EMaxC= 1.00D-01 BMatC= 4.54D-02 BMatP= 1.22D-01
 IDIUse=3 WtCom= 6.07D-01 WtEn= 3.93D-01
 Coeff-Com:  0.368D+00 0.632D+00
 Coeff-En:   0.190D+00 0.810D+00
 Coeff:      0.298D+00 0.702D+00
 Gap=     0.565 Goal=   None    Shift=    0.000
 RMSDP=2.94D-03 MaxDP=5.46D-02 DE=-4.79D-02 OVMax= 5.86D-02

 Cycle   3  Pass 1  IDiag  1:
 E= -76.0390881178863     Delta-E=       -0.030805628699 Rises=F Damp=F
 DIIS: error= 4.94D-03 at cycle   3 NSaved=   3.
 NSaved= 3 IEnMin= 3 EnMin= -76.0390881178863     IErMin= 3 ErrMin= 4.94D-03
 ErrMax= 4.94D-03  0.00D+00 EMaxC= 1.00D-01 BMatC= 1.21D-03 BMatP= 4.54D-02
 IDIUse=3 WtCom= 9.51D-01 WtEn= 4.94D-02
 Coeff-Com: -0.368D-01 0.962D-01 0.941D+00
 Coeff-En:   0.000D+00 0.000D+00 0.100D+01
 Coeff:     -0.350D-01 0.915D-01 0.944D+00
 Gap=     0.545 Goal=   None    Shift=    0.000
 RMSDP=4.78D-04 MaxDP=8.09D-03 DE=-3.08D-02 OVMax= 8.97D-03

 Cycle   4  Pass 1  IDiag  1:
 E= -76.0399796911191     Delta-E=       -0.000891573233 Rises=F Damp=F
 DIIS: error= 5.51D-04 at cycle   4 NSaved=   4.
 NSaved= 4 IEnMin= 4 EnMin= -76.0399796911191     IErMin= 4 ErrMin= 5.51D-04
 ErrMax= 5.51D-04  0.00D+00 EMaxC= 1.00D-01 BMatC= 6.32D-06 BMatP= 1.21D-03
 IDIUse=3 WtCom= 9.94D-01 WtEn= 5.51D-03
 Coeff-Com:  0.901D-02-0.439D-01-0.328D+00 0.136D+01
 Coeff-En:   0.000D+00 0.000D+00 0.000D+00 0.100D+01
 Coeff:      0.896D-02-0.437D-01-0.326D+00 0.136D+01
 Gap=     0.546 Goal=   None    Shift=    0.000
 RMSDP=1.05D-04 MaxDP=9.45D-04 DE=-8.92D-04 OVMax= 2.11D-03

 Cycle   5  Pass 1  IDiag  1:
 E= -76.0399948029436     Delta-E=       -0.000015111824 Rises=F Damp=F
 DIIS: error= 1.44D-04 at cycle   5 NSaved=   5.
 NSaved= 5 IEnMin= 5 EnMin= -76.0399948029436     IErMin= 5 ErrMin= 1.44D-04
 ErrMax= 1.44D-04  0.00D+00 EMaxC= 1.00D-01 BMatC= 2.44D-07 BMatP= 6.32D-06
 IDIUse=3 WtCom= 9.99D-01 WtEn= 1.44D-03
 Coeff-Com: -0.599D-03 0.544D-02 0.387D-01-0.320D+00 0.128D+01
 Coeff-En:   0.000D+00 0.000D+00 0.000D+00 0.000D+00 0.100D+01
 Coeff:     -0.598D-03 0.543D-02 0.386D-01-0.320D+00 0.128D+01
 Gap=     0.546 Goal=   None    Shift=    0.000
 RMSDP=2.36D-05 MaxDP=3.20D-04 DE=-1.51D-05 OVMax= 5.13D-04

 Cycle   6  Pass 1  IDiag  1:
 E= -76.0399955276695     Delta-E=       -0.000000724726 Rises=F Damp=F
 DIIS: error= 2.54D-05 at cycle   6 NSaved=   6.
 NSaved= 6 IEnMin= 6 EnMin= -76.0399955276695     IErMin= 6 ErrMin= 2.54D-05
 ErrMax= 2.54D-05  0.00D+00 EMaxC= 1.00D-01 BMatC= 8.44D-09 BMatP= 2.44D-07
 IDIUse=1 WtCom= 1.00D+00 WtEn= 0.00D+00
 Coeff-Com: -0.281D-03 0.109D-02 0.808D-02-0.130D-01-0.200D+00 0.120D+01
 Coeff:     -0.281D-03 0.109D-02 0.808D-02-0.130D-01-0.200D+00 0.120D+01
 Gap=     0.547 Goal=   None    Shift=    0.000
 RMSDP=3.71D-06 MaxDP=7.00D-05 DE=-7.25D-07 OVMax= 9.94D-05

 Cycle   7  Pass 1  IDiag  1:
 E= -76.0399955534162     Delta-E=       -0.000000025747 Rises=F Damp=F
 DIIS: error= 5.80D-06 at cycle   7 NSaved=   7.
 NSaved= 7 IEnMin= 7 EnMin= -76.0399955534162     IErMin= 7 ErrMin= 5.80D-06
 ErrMax= 5.80D-06  0.00D+00 EMaxC= 1.00D-01 BMatC= 4.80D-10 BMatP= 8.44D-09
 IDIUse=1 WtCom= 1.00D+00 WtEn= 0.00D+00
 Coeff-Com:  0.124D-03-0.658D-03-0.499D-02 0.239D-01-0.102D-01-0.347D+00
 Coeff-Com:  0.134D+01
 Coeff:      0.124D-03-0.658D-03-0.499D-02 0.239D-01-0.102D-01-0.347D+00
 Coeff:      0.134D+01
 Gap=     0.547 Goal=   None    Shift=    0.000
 RMSDP=8.09D-07 MaxDP=1.57D-05 DE=-2.57D-08 OVMax= 2.31D-05

 Cycle   8  Pass 1  IDiag  1:
 E= -76.0399955546577     Delta-E=       -0.000000001242 Rises=F Damp=F
 DIIS: error= 6.73D-07 at cycle   8 NSaved=   8.
 NSaved= 8 IEnMin= 8 EnMin= -76.0399955546577     IErMin= 8 ErrMin= 6.73D-07
 ErrMax= 6.73D-07  0.00D+00 EMaxC= 1.00D-01 BMatC= 1.26D-11 BMatP= 4.80D-10
 IDIUse=1 WtCom= 1.00D+00 WtEn= 0.00D+00
 Coeff-Com: -0.184D-04 0.111D-03 0.888D-03-0.537D-02 0.971D-02 0.458D-01
 Coeff-Com: -0.347D+00 0.130D+01
 Coeff:     -0.184D-04 0.111D-03 0.888D-03-0.537D-02 0.971D-02 0.458D-01
 Coeff:     -0.347D+00 0.130D+01
 Gap=     0.547 Goal=   None    Shift=    0.000
 RMSDP=1.71D-07 MaxDP=2.34D-06 DE=-1.24D-09 OVMax= 3.36D-06

 Cycle   9  Pass 1  IDiag  1:
 E= -76.0399955546890     Delta-E=       -0.000000000031 Rises=F Damp=F
 DIIS: error= 8.42D-08 at cycle   9 NSaved=   9.
 NSaved= 9 IEnMin= 9 EnMin= -76.0399955546890     IErMin= 9 ErrMin= 8.42D-08
 ErrMax= 8.42D-08  0.00D+00 EMaxC= 1.00D-01 BMatC= 2.07D-13 BMatP= 1.26D-11
 IDIUse=1 WtCom= 1.00D+00 WtEn= 0.00D+00
 Coeff-Com: -0.231D-05 0.115D-04 0.797D-04-0.259D-03-0.532D-03 0.608D-02
 Coeff-Com: -0.716D-02-0.102D+00 0.110D+01
 Coeff:     -0.231D-05 0.115D-04 0.797D-04-0.259D-03-0.532D-03 0.608D-02
 Coeff:     -0.716D-02-0.102D+00 0.110D+01
 Gap=     0.547 Goal=   None    Shift=    0.000
 RMSDP=2.30D-08 MaxDP=2.53D-07 DE=-3.13D-11 OVMax= 3.40D-07

 Cycle  10  Pass 1  IDiag  1:
 E= -76.0399955546894     Delta-E=       -0.000000000000 Rises=F Damp=F
 DIIS: error= 2.34D-08 at cycle  10 NSaved=  10.
 NSaved=10 IEnMin=10 EnMin= -76.0399955546894     IErMin=10 ErrMin= 2.34D-08
 ErrMax= 2.34D-08  0.00D+00 EMaxC= 1.00D-01 BMatC= 1.21D-14 BMatP= 2.07D-13
 IDIUse=1 WtCom= 1.00D+00 WtEn= 0.00D+00
 Coeff-Com:  0.100D-05-0.565D-05-0.425D-04 0.217D-03-0.163D-03-0.276D-02
 Coeff-Com:  0.133D-01-0.253D-01-0.253D+00 0.127D+01
 Coeff:      0.100D-05-0.565D-05-0.425D-04 0.217D-03-0.163D-03-0.276D-02
 Coeff:      0.133D-01-0.253D-01-0.253D+00 0.127D+01
 Gap=     0.547 Goal=   None    Shift=    0.000
 RMSDP=5.76D-09 MaxDP=5.94D-08 DE=-3.69D-13 OVMax= 8.79D-08

 SCF Done:  E(RHF) =  -76.0399955547     A.U. after   10 cycles
            NFock= 10  Conv=0.58D-08     -V/T= 2.0002
 KE= 7.602343553374D+01 PE=-1.994030799830D+02 EE= 3.791891366163D+01
 Leave Link  502 at Mon Feb 20 10:27:45 2023, MaxMem=   754974720 cpu:               0.6 elap:               0.1
 (Enter /opt/cluster/programs/g16-c.01/g16/l601.exe)
 Copying SCF densities to generalized density rwf, IOpCl= 0 IROHF=0.

 **********************************************************************

            Population analysis using the SCF Density.

 **********************************************************************

 Orbital symmetries:
       Occupied  (A') (A') (A') (A') (A")
       Virtual   (A') (A') (A') (A") (A') (A') (A') (A') (A") (A')
                 (A") (A') (A') (A') (A') (A') (A") (A') (A") (A')
                 (A') (A") (A') (A') (A") (A") (A') (A') (A') (A')
                 (A') (A") (A') (A") (A') (A')
 The electronic state is 1-A'.
 Alpha  occ. eigenvalues --  -20.57137  -1.36675  -0.74030  -0.58208  -0.51041
 Alpha virt. eigenvalues --    0.03610   0.05770   0.17376   0.19497   0.22335
 Alpha virt. eigenvalues --    0.22952   0.29884   0.32969   0.38518   0.41551
 Alpha virt. eigenvalues --    0.44364   0.53880   0.65137   0.66113   0.83440
 Alpha virt. eigenvalues --    0.92656   1.09381   1.10705   1.15098   1.33940
 Alpha virt. eigenvalues --    1.47705   1.49519   1.59215   2.01252   2.03438
 Alpha virt. eigenvalues --    2.11631   2.42093   2.50380   2.66833   2.75661
 Alpha virt. eigenvalues --    2.94333   3.67017   3.69048   3.71160   4.08391
 Alpha virt. eigenvalues --    4.35706
          Condensed to atoms (all electrons):
               1          2          3
     1  O    7.555193   0.342085   0.355796
     2  H    0.342085   0.551314  -0.048993
     3  H    0.355796  -0.048993   0.595717
 Mulliken charges:
               1
     1  O   -0.253074
     2  H    0.155594
     3  H    0.097480
 Sum of Mulliken charges =  -0.00000
 Mulliken charges with hydrogens summed into heavy atoms:
               1
     1  O   -0.000000
 Electronic spatial extent (au):  <R**2>=             19.2437
 Charge=             -0.0000 electrons
 Dipole moment (field-independent basis, Debye):
    X=             -0.0212    Y=             -1.9161    Z=             -0.0000  Tot=              1.9162
 Quadrupole moment (field-independent basis, Debye-Ang):
   XX=             -4.1747   YY=             -6.3563   ZZ=             -7.5398
   XY=             -0.1516   XZ=             -0.0000   YZ=              0.0000
 Traceless Quadrupole moment (field-independent basis, Debye-Ang):
   XX=              1.8489   YY=             -0.3327   ZZ=             -1.5162
   XY=             -0.1516   XZ=             -0.0000   YZ=              0.0000
 Octapole moment (field-independent basis, Debye-Ang**2):
  XXX=             -0.0645  YYY=             -1.1578  ZZZ=             -0.0000  XYY=              0.0930
  XXY=             -1.3221  XXZ=              0.0000  XZZ=             -0.0310  YZZ=             -0.3014
  YYZ=             -0.0000  XYZ=              0.0000
 Hexadecapole moment (field-independent basis, Debye-Ang**3):
 XXXX=             -5.7349 YYYY=             -7.1483 ZZZZ=             -6.7641 XXXY=             -0.0170
 XXXZ=              0.0000 YYYX=              0.0003 YYYZ=              0.0000 ZZZX=              0.0000
 ZZZY=             -0.0000 XXYY=             -1.9059 XXZZ=             -2.4060 YYZZ=             -2.3600
 XXYZ=              0.0000 YYXZ=              0.0000 ZZXY=              0.0330
 N-N= 9.420735232967D+00 E-N=-1.994030797949D+02  KE= 7.602343553374D+01
 Symmetry A'   KE= 7.158397158069D+01
 Symmetry A"   KE= 4.439463953051D+00
 No NMR shielding tensors so no spin-rotation constants.
 Leave Link  601 at Mon Feb 20 10:27:45 2023, MaxMem=   754974720 cpu:               0.8 elap:               0.3
 (Enter /opt/cluster/programs/g16-c.01/g16/l9999.exe)
 Unable to Open any file for archive entry.
 1\1\GINC-NODE106\SP\RHF\Aug-CC-pVDZ\H2O1\BOITTIER\20-Feb-2023\0\\#P HF
 /aug-cc-pVDZ scf(maxcycle=200)\\Gaussian input\\0,1\O,0,0.,0.11751,0.\
 H,0,0.7578497316,-0.4701504329,0.\H,0,-0.7557276101,-0.3876204577,0.\\
 Version=ES64L-G16RevC.01\State=1-A'\HF=-76.0399956\RMSD=5.759e-09\Dipo
 le=-0.0068875,-0.753878,0.\Quadrupole=1.375036,-0.2477759,-1.1272602,-
 0.1095973,0.,0.\PG=CS [SG(H2O1)]\\@
 The archive entry for this job was punched.


 EDUCATION DOESN'T COST 
           ... IT PAYS!

 -- POSTMARK, UNIV. OF MISSISSIPPI, DEC 78
 Job cpu time:       0 days  0 hours  0 minutes  4.2 seconds.
 Elapsed time:       0 days  0 hours  0 minutes  1.4 seconds.
 File lengths (MBytes):  RWF=      6 Int=      0 D2E=      0 Chk=      1 Scr=      1
 Normal termination of Gaussian 16 at Mon Feb 20 10:27:46 2023.
