 Entering Gaussian System, Link 0=/opt/cluster/programs/g16-c.01/g16/g16
 Input=/scratch/boittier/jobs/tmp.7261729/gaussian_60_water_ccsdt_atz.com
 Output=/scratch/boittier/jobs/tmp.7261729/gaussian_60_water_ccsdt_atz.out
 Initial command:
 /opt/cluster/programs/g16-c.01/g16/l1.exe "/scratch/boittier/jobs/tmp.7261729/Gau-172567.inp" -scrdir="/scratch/boittier/jobs/tmp.7261729/"
 Entering Link 1 = /opt/cluster/programs/g16-c.01/g16/l1.exe PID=    172568.
  
 Copyright (c) 1988-2019, Gaussian, Inc.  All Rights Reserved.
  
 This is part of the Gaussian(R) 16 program.  It is based on
 the Gaussian(R) 09 system (copyright 2009, Gaussian, Inc.),
 the Gaussian(R) 03 system (copyright 2003, Gaussian, Inc.),
 the Gaussian(R) 98 system (copyright 1998, Gaussian, Inc.),
 the Gaussian(R) 94 system (copyright 1995, Gaussian, Inc.),
 the Gaussian 92(TM) system (copyright 1992, Gaussian, Inc.),
 the Gaussian 90(TM) system (copyright 1990, Gaussian, Inc.),
 the Gaussian 88(TM) system (copyright 1988, Gaussian, Inc.),
 the Gaussian 86(TM) system (copyright 1986, Carnegie Mellon
 University), and the Gaussian 82(TM) system (copyright 1983,
 Carnegie Mellon University). Gaussian is a federally registered
 trademark of Gaussian, Inc.
  
 This software contains proprietary and confidential information,
 including trade secrets, belonging to Gaussian, Inc.
  
 This software is provided under written license and may be
 used, copied, transmitted, or stored only in accord with that
 written license.
  
 The following legend is applicable only to US Government
 contracts under FAR:
  
                    RESTRICTED RIGHTS LEGEND
  
 Use, reproduction and disclosure by the US Government is
 subject to restrictions as set forth in subparagraphs (a)
 and (c) of the Commercial Computer Software - Restricted
 Rights clause in FAR 52.227-19.
  
 Gaussian, Inc.
 340 Quinnipiac St., Bldg. 40, Wallingford CT 06492
  
  
 ---------------------------------------------------------------
 Warning -- This program may not be used in any manner that
 competes with the business of Gaussian, Inc. or will provide
 assistance to any competitor of Gaussian, Inc.  The licensee
 of this program is prohibited from giving any competitor of
 Gaussian, Inc. access to this program.  By using this program,
 the user acknowledges that Gaussian, Inc. is engaged in the
 business of creating and licensing software in the field of
 computational chemistry and represents and warrants to the
 licensee that it is not a competitor of Gaussian, Inc. and that
 it will not use this program in any manner prohibited above.
 ---------------------------------------------------------------
  

 Cite this work as:
 Gaussian 16, Revision C.01,
 M. J. Frisch, G. W. Trucks, H. B. Schlegel, G. E. Scuseria, 
 M. A. Robb, J. R. Cheeseman, G. Scalmani, V. Barone, 
 G. A. Petersson, H. Nakatsuji, X. Li, M. Caricato, A. V. Marenich, 
 J. Bloino, B. G. Janesko, R. Gomperts, B. Mennucci, H. P. Hratchian, 
 J. V. Ortiz, A. F. Izmaylov, J. L. Sonnenberg, D. Williams-Young, 
 F. Ding, F. Lipparini, F. Egidi, J. Goings, B. Peng, A. Petrone, 
 T. Henderson, D. Ranasinghe, V. G. Zakrzewski, J. Gao, N. Rega, 
 G. Zheng, W. Liang, M. Hada, M. Ehara, K. Toyota, R. Fukuda, 
 J. Hasegawa, M. Ishida, T. Nakajima, Y. Honda, O. Kitao, H. Nakai, 
 T. Vreven, K. Throssell, J. A. Montgomery, Jr., J. E. Peralta, 
 F. Ogliaro, M. J. Bearpark, J. J. Heyd, E. N. Brothers, K. N. Kudin, 
 V. N. Staroverov, T. A. Keith, R. Kobayashi, J. Normand, 
 K. Raghavachari, A. P. Rendell, J. C. Burant, S. S. Iyengar, 
 J. Tomasi, M. Cossi, J. M. Millam, M. Klene, C. Adamo, R. Cammi, 
 J. W. Ochterski, R. L. Martin, K. Morokuma, O. Farkas, 
 J. B. Foresman, and D. J. Fox, Gaussian, Inc., Wallingford CT, 2019.
 
 ******************************************
 Gaussian 16:  ES64L-G16RevC.01  3-Jul-2019
                 8-Feb-2023 
 ******************************************
 %nproc=4
 Will use up to    4 processors via shared memory.
 %mem=5760MB
 %chk=gaussian_60_water_ccsdt_atz.chk
 ----------------------------------------
 #P CCSD(T)/aug-cc-pVTZ scf(maxcycle=200)
 ----------------------------------------
 1/38=1,172=1/1;
 2/12=2,17=6,18=5,40=1/2;
 3/5=16,6=1,7=10,11=9,25=1,30=1/1,2,3;
 4//1;
 5/5=2,7=200,38=5/2;
 8/6=4,9=120000,10=1/1,4;
 9/5=7,14=2/13;
 6/7=2,8=2,9=2,10=2/1;
 99/5=1,9=1/99;
 Leave Link    1 at Wed Feb  8 13:50:47 2023, MaxMem=   754974720 cpu:               0.1 elap:               0.0
 (Enter /opt/cluster/programs/g16-c.01/g16/l101.exe)
 --------------
 Gaussian input
 --------------
 Symbolic Z-matrix:
 Charge =  0 Multiplicity = 1
 O                     0.        0.11751   0. 
 H                     0.75785  -0.47015   0. 
 H                    -0.48494  -0.65133   0. 
 
 ITRead=  0  0  0
 MicOpt= -1 -1 -1
 NAtoms=      3 NQM=        3 NQMF=       0 NMMI=      0 NMMIF=      0
                NMic=       0 NMicF=      0.
                    Isotopes and Nuclear Properties:
 (Nuclear quadrupole moments (NQMom) in fm**2, nuclear magnetic moments (NMagM)
  in nuclear magnetons)

  Atom         1           2           3
 IAtWgt=          16           1           1
 AtmWgt=  15.9949146   1.0078250   1.0078250
 NucSpn=           0           1           1
 AtZEff=  -0.0000000  -0.0000000  -0.0000000
 NQMom=    0.0000000   0.0000000   0.0000000
 NMagM=    0.0000000   2.7928460   2.7928460
 AtZNuc=   8.0000000   1.0000000   1.0000000
 Leave Link  101 at Wed Feb  8 13:50:47 2023, MaxMem=   754974720 cpu:               0.5 elap:               0.2
 (Enter /opt/cluster/programs/g16-c.01/g16/l202.exe)
                          Input orientation:                          
 ---------------------------------------------------------------------
 Center     Atomic      Atomic             Coordinates (Angstroms)
 Number     Number       Type             X           Y           Z
 ---------------------------------------------------------------------
      1          8           0        0.000000    0.117510    0.000000
      2          1           0        0.757850   -0.470150    0.000000
      3          1           0       -0.484936   -0.651332    0.000000
 ---------------------------------------------------------------------
                    Distance matrix (angstroms):
                    1          2          3
     1  O    0.000000
     2  H    0.959000   0.000000
     3  H    0.909000   1.255924   0.000000
 Stoichiometry    H2O
 Framework group  CS[SG(H2O)]
 Deg. of freedom     3
 Full point group                 CS      NOp   2
 Largest Abelian subgroup         CS      NOp   2
 Largest concise Abelian subgroup C1      NOp   1
                         Standard orientation:                         
 ---------------------------------------------------------------------
 Center     Atomic      Atomic             Coordinates (Angstroms)
 Number     Number       Type             X           Y           Z
 ---------------------------------------------------------------------
      1          8           0        0.000000    0.138368    0.000000
      2          1           0        0.627054   -0.587224   -0.000000
      3          1           0       -0.627054   -0.519723    0.000000
 ---------------------------------------------------------------------
 Rotational constants (GHZ):         654.8714125         574.3410628         305.9841570
 Leave Link  202 at Wed Feb  8 13:50:47 2023, MaxMem=   754974720 cpu:               0.1 elap:               0.1
 (Enter /opt/cluster/programs/g16-c.01/g16/l301.exe)
 Standard basis: Aug-CC-pVTZ (5D, 7F)
 Ernie: Thresh=  0.10000D-02 Tol=  0.10000D-05 Strict=F.
 Ernie:  3 primitive shells out of 52 were deleted.
 There are    73 symmetry adapted cartesian basis functions of A'  symmetry.
 There are    32 symmetry adapted cartesian basis functions of A"  symmetry.
 There are    62 symmetry adapted basis functions of A'  symmetry.
 There are    30 symmetry adapted basis functions of A"  symmetry.
    92 basis functions,   126 primitive gaussians,   105 cartesian basis functions
     5 alpha electrons        5 beta electrons
       nuclear repulsion energy         9.4929786642 Hartrees.
 IExCor=    0 DFT=F Ex=HF Corr=None ExCW=0 ScaHFX=  1.000000
 ScaDFX=  1.000000  1.000000  1.000000  1.000000 ScalE2=  1.000000  1.000000
 IRadAn=      5 IRanWt=     -1 IRanGd=            0 ICorTp=0 IEmpDi=  4
 NAtoms=    3 NActive=    3 NUniq=    3 SFac= 1.00D+00 NAtFMM=   60 NAOKFM=F Big=F
 Integral buffers will be    131072 words long.
 Raffenetti 1 integral format.
 Two-electron integral symmetry is turned on.
 Leave Link  301 at Wed Feb  8 13:50:47 2023, MaxMem=   754974720 cpu:               0.2 elap:               0.1
 (Enter /opt/cluster/programs/g16-c.01/g16/l302.exe)
 NPDir=0 NMtPBC=     1 NCelOv=     1 NCel=       1 NClECP=     1 NCelD=      1
         NCelK=      1 NCelE2=     1 NClLst=     1 CellRange=     0.0.
 One-electron integrals computed using PRISM.
 One-electron integral symmetry used in STVInt
 NBasis=    92 RedAO= T EigKep=  2.98D-04  NBF=    62    30
 NBsUse=    92 1.00D-06 EigRej= -1.00D+00 NBFU=    62    30
 Leave Link  302 at Wed Feb  8 13:50:49 2023, MaxMem=   754974720 cpu:               3.3 elap:               1.6
 (Enter /opt/cluster/programs/g16-c.01/g16/l303.exe)
 DipDrv:  MaxL=1.
 Leave Link  303 at Wed Feb  8 13:50:49 2023, MaxMem=   754974720 cpu:               0.5 elap:               0.3
 (Enter /opt/cluster/programs/g16-c.01/g16/l401.exe)
 ExpMin= 2.53D-02 ExpMax= 1.53D+04 ExpMxC= 5.22D+02 IAcc=3 IRadAn=         5 AccDes= 0.00D+00
 Harris functional with IExCor=  205 and IRadAn=       5 diagonalized for initial guess.
 HarFok:  IExCor=  205 AccDes= 0.00D+00 IRadAn=         5 IDoV= 1 UseB2=F ITyADJ=14
 ICtDFT=  3500011 ScaDFX=  1.000000  1.000000  1.000000  1.000000
 FoFCou: FMM=F IPFlag=           0 FMFlag=      100000 FMFlg1=           0
         NFxFlg=           0 DoJE=T BraDBF=F KetDBF=T FulRan=T
         wScrn=  0.000000 ICntrl=       500 IOpCl=  0 I1Cent=   200000004 NGrid=           0
         NMat0=    1 NMatS0=      1 NMatT0=    0 NMatD0=    1 NMtDS0=    0 NMtDT0=    0
 Petite list used in FoFCou.
 Harris En= -76.1396388029586    
 JPrj=0 DoOrth=F DoCkMO=F.
 Initial guess orbital symmetries:
       Occupied  (A') (A') (A') (A') (A")
       Virtual   (A') (A') (A') (A") (A') (A') (A') (A') (A") (A")
                 (A') (A') (A') (A') (A') (A') (A') (A") (A") (A")
                 (A') (A') (A') (A") (A') (A") (A') (A') (A') (A")
                 (A') (A") (A') (A') (A') (A") (A") (A') (A') (A')
                 (A') (A") (A") (A') (A') (A") (A') (A') (A') (A")
                 (A') (A") (A') (A') (A') (A") (A") (A') (A") (A')
                 (A") (A') (A") (A') (A') (A') (A') (A') (A") (A")
                 (A') (A') (A') (A') (A") (A') (A") (A") (A') (A")
                 (A') (A") (A') (A') (A') (A') (A')
 The electronic state of the initial guess is 1-A'.
 Leave Link  401 at Wed Feb  8 13:50:50 2023, MaxMem=   754974720 cpu:               2.0 elap:               0.7
 (Enter /opt/cluster/programs/g16-c.01/g16/l502.exe)
 Keep R1 ints in memory in symmetry-blocked form, NReq=13818732.
 FoFCou: FMM=F IPFlag=           0 FMFlag=           0 FMFlg1=           0
         NFxFlg=           0 DoJE=F BraDBF=F KetDBF=F FulRan=T
         wScrn=  0.000000 ICntrl=       600 IOpCl=  0 I1Cent=           0 NGrid=           0
         NMat0=    1 NMatS0=   4278 NMatT0=    0 NMatD0=    1 NMtDS0=    0 NMtDT0=    0
 Petite list used in FoFCou.
 Closed shell SCF:
 Using DIIS extrapolation, IDIIS=  1040.
 NGot=   754974720 LenX=   750285684 LenY=   750274218
 Requested convergence on RMS density matrix=1.00D-08 within 200 cycles.
 Requested convergence on MAX density matrix=1.00D-06.
 Requested convergence on             energy=1.00D-06.
 No special actions if energy rises.

 Cycle   1  Pass 1  IDiag  1:
 E= -75.9531741475683    
 DIIS: error= 4.43D-02 at cycle   1 NSaved=   1.
 NSaved= 1 IEnMin= 1 EnMin= -75.9531741475683     IErMin= 1 ErrMin= 4.43D-02
 ErrMax= 4.43D-02  0.00D+00 EMaxC= 1.00D-01 BMatC= 2.09D-01 BMatP= 2.09D-01
 IDIUse=3 WtCom= 5.57D-01 WtEn= 4.43D-01
 Coeff-Com:  0.100D+01
 Coeff-En:   0.100D+01
 Coeff:      0.100D+01
 Gap=     0.455 Goal=   None    Shift=    0.000
 GapD=    0.455 DampG=2.000 DampE=0.500 DampFc=1.0000 IDamp=-1.
 RMSDP=2.23D-03 MaxDP=4.96D-02              OVMax= 1.27D-01

 Cycle   2  Pass 1  IDiag  1:
 E= -76.0074290662244     Delta-E=       -0.054254918656 Rises=F Damp=F
 DIIS: error= 2.91D-02 at cycle   2 NSaved=   2.
 NSaved= 2 IEnMin= 2 EnMin= -76.0074290662244     IErMin= 2 ErrMin= 2.91D-02
 ErrMax= 2.91D-02  0.00D+00 EMaxC= 1.00D-01 BMatC= 6.13D-02 BMatP= 2.09D-01
 IDIUse=3 WtCom= 7.09D-01 WtEn= 2.91D-01
 Coeff-Com:  0.324D+00 0.676D+00
 Coeff-En:   0.199D+00 0.801D+00
 Coeff:      0.288D+00 0.712D+00
 Gap=     0.570 Goal=   None    Shift=    0.000
 RMSDP=1.33D-03 MaxDP=3.66D-02 DE=-5.43D-02 OVMax= 6.45D-02

 Cycle   3  Pass 1  IDiag  1:
 E= -76.0437777285407     Delta-E=       -0.036348662316 Rises=F Damp=F
 DIIS: error= 5.33D-03 at cycle   3 NSaved=   3.
 NSaved= 3 IEnMin= 3 EnMin= -76.0437777285407     IErMin= 3 ErrMin= 5.33D-03
 ErrMax= 5.33D-03  0.00D+00 EMaxC= 1.00D-01 BMatC= 2.40D-03 BMatP= 6.13D-02
 IDIUse=3 WtCom= 9.47D-01 WtEn= 5.33D-02
 Coeff-Com: -0.303D-01 0.132D+00 0.898D+00
 Coeff-En:   0.000D+00 0.000D+00 0.100D+01
 Coeff:     -0.287D-01 0.125D+00 0.904D+00
 Gap=     0.544 Goal=   None    Shift=    0.000
 RMSDP=1.98D-04 MaxDP=3.78D-03 DE=-3.63D-02 OVMax= 1.16D-02

 Cycle   4  Pass 1  IDiag  1:
 E= -76.0452756519736     Delta-E=       -0.001497923433 Rises=F Damp=F
 DIIS: error= 4.46D-04 at cycle   4 NSaved=   4.
 NSaved= 4 IEnMin= 4 EnMin= -76.0452756519736     IErMin= 4 ErrMin= 4.46D-04
 ErrMax= 4.46D-04  0.00D+00 EMaxC= 1.00D-01 BMatC= 9.32D-06 BMatP= 2.40D-03
 IDIUse=3 WtCom= 9.96D-01 WtEn= 4.46D-03
 Coeff-Com:  0.752D-02-0.493D-01-0.277D+00 0.132D+01
 Coeff-En:   0.000D+00 0.000D+00 0.000D+00 0.100D+01
 Coeff:      0.749D-02-0.491D-01-0.276D+00 0.132D+01
 Gap=     0.545 Goal=   None    Shift=    0.000
 RMSDP=3.63D-05 MaxDP=6.28D-04 DE=-1.50D-03 OVMax= 2.04D-03

 Cycle   5  Pass 1  IDiag  1:
 E= -76.0452948380569     Delta-E=       -0.000019186083 Rises=F Damp=F
 DIIS: error= 1.38D-04 at cycle   5 NSaved=   5.
 NSaved= 5 IEnMin= 5 EnMin= -76.0452948380569     IErMin= 5 ErrMin= 1.38D-04
 ErrMax= 1.38D-04  0.00D+00 EMaxC= 1.00D-01 BMatC= 5.03D-07 BMatP= 9.32D-06
 IDIUse=3 WtCom= 9.99D-01 WtEn= 1.38D-03
 Coeff-Com: -0.469D-03 0.541D-02 0.330D-01-0.345D+00 0.131D+01
 Coeff-En:   0.000D+00 0.000D+00 0.000D+00 0.000D+00 0.100D+01
 Coeff:     -0.468D-03 0.540D-02 0.329D-01-0.345D+00 0.131D+01
 Gap=     0.546 Goal=   None    Shift=    0.000
 RMSDP=9.76D-06 MaxDP=2.09D-04 DE=-1.92D-05 OVMax= 6.50D-04

 Cycle   6  Pass 1  IDiag  1:
 E= -76.0452960438098     Delta-E=       -0.000001205753 Rises=F Damp=F
 DIIS: error= 1.89D-05 at cycle   6 NSaved=   6.
 NSaved= 6 IEnMin= 6 EnMin= -76.0452960438098     IErMin= 6 ErrMin= 1.89D-05
 ErrMax= 1.89D-05  0.00D+00 EMaxC= 1.00D-01 BMatC= 1.52D-08 BMatP= 5.03D-07
 IDIUse=1 WtCom= 1.00D+00 WtEn= 0.00D+00
 Coeff-Com: -0.110D-03 0.549D-04-0.180D-02 0.654D-01-0.421D+00 0.136D+01
 Coeff:     -0.110D-03 0.549D-04-0.180D-02 0.654D-01-0.421D+00 0.136D+01
 Gap=     0.546 Goal=   None    Shift=    0.000
 RMSDP=1.75D-06 MaxDP=4.23D-05 DE=-1.21D-06 OVMax= 1.16D-04

 Cycle   7  Pass 1  IDiag  1:
 E= -76.0452960815673     Delta-E=       -0.000000037758 Rises=F Damp=F
 DIIS: error= 2.82D-06 at cycle   7 NSaved=   7.
 NSaved= 7 IEnMin= 7 EnMin= -76.0452960815673     IErMin= 7 ErrMin= 2.82D-06
 ErrMax= 2.82D-06  0.00D+00 EMaxC= 1.00D-01 BMatC= 3.38D-10 BMatP= 1.52D-08
 IDIUse=1 WtCom= 1.00D+00 WtEn= 0.00D+00
 Coeff-Com:  0.276D-04-0.159D-03-0.649D-03 0.867D-03 0.226D-01-0.206D+00
 Coeff-Com:  0.118D+01
 Coeff:      0.276D-04-0.159D-03-0.649D-03 0.867D-03 0.226D-01-0.206D+00
 Coeff:      0.118D+01
 Gap=     0.546 Goal=   None    Shift=    0.000
 RMSDP=2.47D-07 MaxDP=4.95D-06 DE=-3.78D-08 OVMax= 1.59D-05

 Cycle   8  Pass 1  IDiag  1:
 E= -76.0452960823462     Delta-E=       -0.000000000779 Rises=F Damp=F
 DIIS: error= 4.84D-07 at cycle   8 NSaved=   8.
 NSaved= 8 IEnMin= 8 EnMin= -76.0452960823462     IErMin= 8 ErrMin= 4.84D-07
 ErrMax= 4.84D-07  0.00D+00 EMaxC= 1.00D-01 BMatC= 1.34D-11 BMatP= 3.38D-10
 IDIUse=1 WtCom= 1.00D+00 WtEn= 0.00D+00
 Coeff-Com:  0.288D-05 0.130D-04 0.175D-03-0.350D-02 0.199D-01-0.532D-01
 Coeff-Com: -0.941D-01 0.113D+01
 Coeff:      0.288D-05 0.130D-04 0.175D-03-0.350D-02 0.199D-01-0.532D-01
 Coeff:     -0.941D-01 0.113D+01
 Gap=     0.546 Goal=   None    Shift=    0.000
 RMSDP=6.12D-08 MaxDP=1.61D-06 DE=-7.79D-10 OVMax= 3.35D-06

 Cycle   9  Pass 1  IDiag  1:
 E= -76.0452960823785     Delta-E=       -0.000000000032 Rises=F Damp=F
 DIIS: error= 1.05D-07 at cycle   9 NSaved=   9.
 NSaved= 9 IEnMin= 9 EnMin= -76.0452960823785     IErMin= 9 ErrMin= 1.05D-07
 ErrMax= 1.05D-07  0.00D+00 EMaxC= 1.00D-01 BMatC= 3.99D-13 BMatP= 1.34D-11
 IDIUse=1 WtCom= 1.00D+00 WtEn= 0.00D+00
 Coeff-Com: -0.118D-05 0.168D-05-0.211D-04 0.670D-03-0.423D-02 0.146D-01
 Coeff-Com: -0.104D-01-0.227D+00 0.123D+01
 Coeff:     -0.118D-05 0.168D-05-0.211D-04 0.670D-03-0.423D-02 0.146D-01
 Coeff:     -0.104D-01-0.227D+00 0.123D+01
 Gap=     0.546 Goal=   None    Shift=    0.000
 RMSDP=1.13D-08 MaxDP=2.63D-07 DE=-3.23D-11 OVMax= 5.41D-07

 Cycle  10  Pass 1  IDiag  1:
 E= -76.0452960823792     Delta-E=       -0.000000000001 Rises=F Damp=F
 DIIS: error= 2.13D-08 at cycle  10 NSaved=  10.
 NSaved=10 IEnMin=10 EnMin= -76.0452960823792     IErMin=10 ErrMin= 2.13D-08
 ErrMax= 2.13D-08  0.00D+00 EMaxC= 1.00D-01 BMatC= 1.47D-14 BMatP= 3.99D-13
 IDIUse=1 WtCom= 1.00D+00 WtEn= 0.00D+00
 Coeff-Com:  0.363D-06-0.878D-06 0.370D-05-0.165D-03 0.106D-02-0.401D-02
 Coeff-Com:  0.622D-02 0.576D-01-0.485D+00 0.142D+01
 Coeff:      0.363D-06-0.878D-06 0.370D-05-0.165D-03 0.106D-02-0.401D-02
 Coeff:      0.622D-02 0.576D-01-0.485D+00 0.142D+01
 Gap=     0.546 Goal=   None    Shift=    0.000
 RMSDP=2.55D-09 MaxDP=5.57D-08 DE=-6.54D-13 OVMax= 1.20D-07

 SCF Done:  E(RHF) =  -76.0452960824     A.U. after   10 cycles
            NFock= 10  Conv=0.25D-08     -V/T= 1.9994
 KE= 7.609429713160D+01 PE=-1.995959982479D+02 EE= 3.796342636977D+01
 Leave Link  502 at Wed Feb  8 13:50:58 2023, MaxMem=   754974720 cpu:              15.9 elap:               7.9
 (Enter /opt/cluster/programs/g16-c.01/g16/l801.exe)
 Windowed orbitals will be sorted by symmetry type.
 ExpMin= 2.53D-02 ExpMax= 1.53D+04 ExpMxC= 5.22D+02 IAcc=3 IRadAn=         5 AccDes= 0.00D+00
 HarFok:  IExCor=  205 AccDes= 0.00D+00 IRadAn=         5 IDoV=-2 UseB2=F ITyADJ=14
 ICtDFT= 12500011 ScaDFX=  1.000000  1.000000  1.000000  1.000000
 Largest valence mixing into a core orbital is  1.11D-04
 Largest core mixing into a valence orbital is  1.57D-05
 Range of M.O.s used for correlation:     2    92
 NBasis=    92 NAE=     5 NBE=     5 NFC=     1 NFV=     0
 NROrb=     91 NOA=     4 NOB=     4 NVA=    87 NVB=    87

 **** Warning!!: The largest alpha MO coefficient is  0.16708949D+02

 Leave Link  801 at Wed Feb  8 13:50:58 2023, MaxMem=   754974720 cpu:               0.8 elap:               0.4
 (Enter /opt/cluster/programs/g16-c.01/g16/l804.exe)
 Closed-shell transformation, MDV=   754974720 ITran=4 ISComp=2.
 Unit  1 TFree=        277501 TCopy=        343607.
 Semi-Direct transformation.
 ModeAB=           2 MOrb=             4 LenV=     754586750
 LASXX=       736380 LTotXX=      736380 LenRXX=      736380
 LTotAB=      763744 MaxLAS=     2025660 LenRXY=     2025660
 NonZer=     2107560 LenScr=     3929600 LnRSAI=           0
 LnScr1=           0 LExtra=           0 Total=      6691640
 MaxDsk=          -1 SrtSym=           F ITran=            4
 DoSDTr:  NPSUse=  4
 JobTyp=0 Pass  1:  I=   1 to   4.
 (rs|ai) integrals will be sorted in core.
 Complete sort for first half transformation.
 First half transformation complete.
 Complete sort for second half transformation.
 Second half transformation complete.
 Spin components of T(2) and E(2):
     alpha-alpha T2 =       0.8114724307D-02 E2=     -0.3276928312D-01
     alpha-beta  T2 =       0.4669940908D-01 E2=     -0.2033720153D+00
     beta-beta   T2 =       0.8114724307D-02 E2=     -0.3276928312D-01
 ANorm=    0.1030984412D+01
 E2 =    -0.2689105815D+00 EUMP2 =    -0.76314206663894D+02
 Leave Link  804 at Wed Feb  8 13:50:59 2023, MaxMem=   754974720 cpu:               2.3 elap:               0.6
 (Enter /opt/cluster/programs/g16-c.01/g16/l913.exe)
 CIDS:  MDV=   754974720.
 Frozen-core window:  NFC=   1 NFV=   0.
 IFCWin=0 IBDFC=1 NFBD=     0     0 NFCmp=     0     0 NFFFC=     0     0
 Using DD3R+UMP44R for 1st iteration.
 Using DD4RQ for 2nd and later iterations.
 Keep R2 and R3 ints in memory in symmetry-blocked form, NReq=13979827.
 FoFCou: FMM=F IPFlag=           0 FMFlag=           0 FMFlg1=           0
         NFxFlg=           0 DoJE=F BraDBF=F KetDBF=F FulRan=T
         wScrn=  0.000000 ICntrl=       600 IOpCl=  0 I1Cent=           0 NGrid=           0
         NMat0=    1 NMatS0=   4278 NMatT0=    0 NMatD0=    1 NMtDS0=    0 NMtDT0=    0
 Petite list used in FoFCou.
 CIDS: In Core Option IDoMem=           1.
 CCSD(T)
 =======
 Iterations=  50 Convergence= 0.100D-06
 Produce multiple copies of IABC intergrals
 Iteration Nr.   1
 **********************
 DD1Dir will call FoFMem   1 times, MxPair=        20
 NAB=    10 NAA=     0 NBB=     0.
 MP4(R+Q)=  0.40830850D-02
 Maximum subspace dimension=  5
 A-vector RMS=  2.8157911D-03 Max=  1.1563532D-02 conv= 1.00D-05.
 RLE energy=       -0.2673845551
 E3=       -0.25919834D-02        EUMP3=      -0.76316798647D+02
 E4(DQ)=   -0.48199007D-03        UMP4(DQ)=   -0.76317280637D+02
 E4(SDQ)=  -0.23504546D-02        UMP4(SDQ)=  -0.76319149102D+02
 VARIATIONAL ENERGIES WITH THE FIRST-ORDER WAVEFUNCTION:
 DE(Corr)= -0.26737585     E(Corr)=     -76.312671935    
 NORM(A)=   0.10307133D+01
 Iteration Nr.   2
 **********************
 DD1Dir will call FoFMem   1 times, MxPair=        20
 NAB=    10 NAA=     0 NBB=     0.
 A-vector RMS=  2.9332729D-04 Max=  2.0788606D-03 conv= 1.00D-05.
 RLE energy=       -0.2730354340
 DE(Corr)= -0.27268254     E(CORR)=     -76.317978626     Delta=-5.31D-03
 NORM(A)=   0.10327360D+01
 Iteration Nr.   3
 **********************
 DD1Dir will call FoFMem   1 times, MxPair=        20
 NAB=    10 NAA=     0 NBB=     0.
 A-vector RMS=  3.8284924D-04 Max=  2.0757084D-03 conv= 1.00D-05.
 RLE energy=       -0.2733292244
 DE(Corr)= -0.27297116     E(CORR)=     -76.318267242     Delta=-2.89D-04
 NORM(A)=   0.10331251D+01
 Iteration Nr.   4
 **********************
 DD1Dir will call FoFMem   1 times, MxPair=        20
 NAB=    10 NAA=     0 NBB=     0.
 A-vector RMS=  5.8497876D-05 Max=  3.3787410D-04 conv= 1.00D-05.
 RLE energy=       -0.2733607421
 DE(Corr)= -0.27333440     E(CORR)=     -76.318630483     Delta=-3.63D-04
 NORM(A)=   0.10332307D+01
 Iteration Nr.   5
 **********************
 DD1Dir will call FoFMem   1 times, MxPair=        20
 NAB=    10 NAA=     0 NBB=     0.
 A-vector RMS=  2.7528044D-05 Max=  1.7621647D-04 conv= 1.00D-05.
 RLE energy=       -0.2733718926
 DE(Corr)= -0.27336708     E(CORR)=     -76.318663161     Delta=-3.27D-05
 NORM(A)=   0.10332511D+01
 Iteration Nr.   6
 **********************
 DD1Dir will call FoFMem   1 times, MxPair=        20
 NAB=    10 NAA=     0 NBB=     0.
 A-vector RMS=  6.5287576D-06 Max=  4.0215321D-05 conv= 1.00D-05.
 RLE energy=       -0.2733687004
 DE(Corr)= -0.27336945     E(CORR)=     -76.318665533     Delta=-2.37D-06
 NORM(A)=   0.10332527D+01
 Iteration Nr.   7
 **********************
 DD1Dir will call FoFMem   1 times, MxPair=        20
 NAB=    10 NAA=     0 NBB=     0.
 A-vector RMS=  2.0389072D-06 Max=  1.1261281D-05 conv= 1.00D-05.
 RLE energy=       -0.2733686521
 DE(Corr)= -0.27336944     E(CORR)=     -76.318665527     Delta= 5.99D-09
 NORM(A)=   0.10332532D+01
 Iteration Nr.   8
 **********************
 DD1Dir will call FoFMem   1 times, MxPair=        20
 NAB=    10 NAA=     0 NBB=     0.
 A-vector RMS=  8.1898046D-07 Max=  5.4542096D-06 conv= 1.00D-05.
 RLE energy=       -0.2733691469
 DE(Corr)= -0.27336923     E(CORR)=     -76.318665316     Delta= 2.11D-07
 NORM(A)=   0.10332535D+01
 Iteration Nr.   9
 **********************
 DD1Dir will call FoFMem   1 times, MxPair=        20
 NAB=    10 NAA=     0 NBB=     0.
 A-vector RMS=  1.6107276D-07 Max=  9.0838221D-07 conv= 1.00D-05.
 RLE energy=       -0.2733692244
 DE(Corr)= -0.27336924     E(CORR)=     -76.318665320     Delta=-3.50D-09
 NORM(A)=   0.10332537D+01
 CI/CC converged in    9 iterations to DelEn=-3.50D-09 Conv= 1.00D-07 ErrA1= 1.61D-07 Conv= 1.00D-05
 Wavefunction amplitudes converged. E(Corr)=     -76.318665320    
 Largest amplitude= 2.22D-02
 IPart=  3 IA=    6   11.23% done.
 IPart=  4 IA=   11   21.79% done.
 IPart=  1 IA=   16   31.68% done.
 IPart=  2 IA=   21   40.90% done.
 IPart=  4 IA=   27   51.08% done.
 IPart=  3 IA=   33   60.30% done.
 IPart=  3 IA=   41   71.10% done.
 IPart=  4 IA=   49   80.19% done.
 IPart=  1 IA=   61   90.62% done.
 Time for triples=        7.02 seconds.
 T4(CCSD)= -0.89356106D-02
 T5(CCSD)=  0.31609190D-03
 CCSD(T)= -0.76327284839D+02
 Discarding MO integrals.
 Leave Link  913 at Wed Feb  8 13:52:07 2023, MaxMem=   754974720 cpu:             137.3 elap:              68.1
 (Enter /opt/cluster/programs/g16-c.01/g16/l601.exe)
 Copying SCF densities to generalized density rwf, IOpCl= 0 IROHF=0.

 **********************************************************************

            Population analysis using the SCF Density.

 **********************************************************************

 Orbital symmetries:
       Occupied  (A') (A') (A') (A') (A")
       Virtual   (A') (A') (A') (A") (A') (A') (A') (A') (A") (A")
                 (A') (A') (A') (A') (A') (A') (A') (A") (A") (A')
                 (A") (A') (A") (A') (A") (A') (A') (A') (A') (A")
                 (A') (A") (A') (A') (A') (A") (A") (A') (A') (A')
                 (A') (A") (A") (A') (A') (A") (A') (A') (A') (A')
                 (A") (A") (A') (A') (A') (A") (A') (A") (A") (A')
                 (A") (A") (A') (A') (A') (A') (A') (A") (A') (A')
                 (A") (A') (A') (A') (A") (A') (A") (A') (A") (A")
                 (A") (A') (A') (A') (A') (A') (A')
 The electronic state is 1-A'.
 Alpha  occ. eigenvalues --  -20.57011  -1.38437  -0.68539  -0.62987  -0.51769
 Alpha virt. eigenvalues --    0.02810   0.04903   0.13220   0.16050   0.17804
 Alpha virt. eigenvalues --    0.18794   0.22389   0.24915   0.27250   0.28327
 Alpha virt. eigenvalues --    0.30171   0.37288   0.43440   0.47203   0.58918
 Alpha virt. eigenvalues --    0.67134   0.70318   0.71937   0.73965   0.85768
 Alpha virt. eigenvalues --    0.87380   0.89555   0.89834   0.91586   0.92494
 Alpha virt. eigenvalues --    0.93717   0.96155   1.02126   1.05489   1.07749
 Alpha virt. eigenvalues --    1.11792   1.19215   1.21198   1.26078   1.43278
 Alpha virt. eigenvalues --    1.53479   1.56202   1.80737   1.95749   2.00337
 Alpha virt. eigenvalues --    2.20152   2.27550   2.32760   2.33416   2.39013
 Alpha virt. eigenvalues --    2.40777   2.45275   2.54056   2.65180   2.68473
 Alpha virt. eigenvalues --    2.70727   2.88097   2.89795   3.48869   3.74356
 Alpha virt. eigenvalues --    3.94939   4.03090   4.10101   4.22771   4.42482
 Alpha virt. eigenvalues --    4.42577   4.43249   4.46430   4.65942   4.80790
 Alpha virt. eigenvalues --    4.97464   5.07951   5.18713   5.20955   5.62739
 Alpha virt. eigenvalues --    5.63230   5.69069   6.33261   6.48058   6.68973
 Alpha virt. eigenvalues --    7.08056   7.18423   7.24245   7.27606   7.29417
 Alpha virt. eigenvalues --    7.43460   7.51126   7.55025   7.70227   8.15051
 Alpha virt. eigenvalues --    9.00671  16.72437
          Condensed to atoms (all electrons):
               1          2          3
     1  O    7.900165   0.261009   0.255209
     2  H    0.261009   0.473338   0.032826
     3  H    0.255209   0.032826   0.528408
 Mulliken charges:
               1
     1  O   -0.416384
     2  H    0.232827
     3  H    0.183557
 Sum of Mulliken charges =   0.00000
 Mulliken charges with hydrogens summed into heavy atoms:
               1
     1  O    0.000000
 Electronic spatial extent (au):  <R**2>=             19.1263
 Charge=              0.0000 electrons
 Dipole moment (field-independent basis, Debye):
    X=             -0.0320    Y=             -2.2601    Z=             -0.0000  Tot=              2.2603
 Quadrupole moment (field-independent basis, Debye-Ang):
   XX=             -5.1519   YY=             -5.6255   ZZ=             -7.4816
   XY=             -0.0785   XZ=              0.0000   YZ=             -0.0000
 Traceless Quadrupole moment (field-independent basis, Debye-Ang):
   XX=              0.9344   YY=              0.4608   ZZ=             -1.3953
   XY=             -0.0785   XZ=              0.0000   YZ=             -0.0000
 Octapole moment (field-independent basis, Debye-Ang**2):
  XXX=             -0.0845  YYY=             -1.5696  ZZZ=             -0.0000  XYY=              0.0709
  XXY=             -1.1743  XXZ=             -0.0000  XZZ=             -0.0267  YZZ=             -0.3014
  YYZ=             -0.0000  XYZ=              0.0000
 Hexadecapole moment (field-independent basis, Debye-Ang**3):
 XXXX=             -6.2811 YYYY=             -7.0371 ZZZZ=             -6.5702 XXXY=              0.0517
 XXXZ=              0.0000 YYYX=             -0.0098 YYYZ=             -0.0000 ZZZX=              0.0000
 ZZZY=             -0.0000 XXYY=             -1.7721 XXZZ=             -2.2881 YYZZ=             -2.3688
 XXYZ=             -0.0000 YYXZ=              0.0000 ZZXY=              0.0313
 N-N= 9.492978664174D+00 E-N=-1.995959982152D+02  KE= 7.609429713160D+01
 Symmetry A'   KE= 7.161536167855D+01
 Symmetry A"   KE= 4.478935453056D+00
 Leave Link  601 at Wed Feb  8 13:52:07 2023, MaxMem=   754974720 cpu:               0.8 elap:               0.4
 (Enter /opt/cluster/programs/g16-c.01/g16/l9999.exe)
 Unable to Open any file for archive entry.
 1\1\GINC-NODE62\SP\RCCSD(T)-FC\Aug-CC-pVTZ\H2O1\BOITTIER\08-Feb-2023\0
 \\#P CCSD(T)/aug-cc-pVTZ scf(maxcycle=200)\\Gaussian input\\0,1\O,0,0.
 ,0.11751,0.\H,0,0.7578497316,-0.4701504329,0.\H,0,-0.4849364588,-0.651
 3317464,0.\\Version=ES64L-G16RevC.01\State=1-A'\HF=-76.0452961\MP2=-76
 .3142067\MP3=-76.3167986\MP4D=-76.3213637\MP4DQ=-76.3172806\MP4SDQ=-76
 .3191491\CCSD=-76.3186653\CCSD(T)=-76.3272848\RMSD=2.550e-09\PG=CS [SG
 (H2O1)]\\@
 The archive entry for this job was punched.


 IT IS BY EATING THE LIGHT OF A STAR THAT WE EXIST, 
 IN THE FINAL ANALYSIS, 
 JUST AS IT IS BY PERCEIVING THE LIGHT OF STARS
 THAT WE DEFINE THE WORLD AROUND US.

                                    -- GILBERT GROSVENOR
 Job cpu time:       0 days  0 hours  2 minutes 44.0 seconds.
 Elapsed time:       0 days  0 hours  1 minutes 20.4 seconds.
 File lengths (MBytes):  RWF=     75 Int=      0 D2E=      0 Chk=      2 Scr=      1
 Normal termination of Gaussian 16 at Wed Feb  8 13:52:07 2023.
