 Entering Gaussian System, Link 0=/opt/cluster/programs/g16-c.01/g16/g16
 Input=/scratch/boittier/jobs/tmp.7311992/gaussian_164_water_hf_adz2.com
 Output=/scratch/boittier/jobs/tmp.7311992/gaussian_164_water_hf_adz2.out
 Initial command:
 /opt/cluster/programs/g16-c.01/g16/l1.exe "/scratch/boittier/jobs/tmp.7311992/Gau-190688.inp" -scrdir="/scratch/boittier/jobs/tmp.7311992/"
 Entering Link 1 = /opt/cluster/programs/g16-c.01/g16/l1.exe PID=    190689.
  
 Copyright (c) 1988-2019, Gaussian, Inc.  All Rights Reserved.
  
 This is part of the Gaussian(R) 16 program.  It is based on
 the Gaussian(R) 09 system (copyright 2009, Gaussian, Inc.),
 the Gaussian(R) 03 system (copyright 2003, Gaussian, Inc.),
 the Gaussian(R) 98 system (copyright 1998, Gaussian, Inc.),
 the Gaussian(R) 94 system (copyright 1995, Gaussian, Inc.),
 the Gaussian 92(TM) system (copyright 1992, Gaussian, Inc.),
 the Gaussian 90(TM) system (copyright 1990, Gaussian, Inc.),
 the Gaussian 88(TM) system (copyright 1988, Gaussian, Inc.),
 the Gaussian 86(TM) system (copyright 1986, Carnegie Mellon
 University), and the Gaussian 82(TM) system (copyright 1983,
 Carnegie Mellon University). Gaussian is a federally registered
 trademark of Gaussian, Inc.
  
 This software contains proprietary and confidential information,
 including trade secrets, belonging to Gaussian, Inc.
  
 This software is provided under written license and may be
 used, copied, transmitted, or stored only in accord with that
 written license.
  
 The following legend is applicable only to US Government
 contracts under FAR:
  
                    RESTRICTED RIGHTS LEGEND
  
 Use, reproduction and disclosure by the US Government is
 subject to restrictions as set forth in subparagraphs (a)
 and (c) of the Commercial Computer Software - Restricted
 Rights clause in FAR 52.227-19.
  
 Gaussian, Inc.
 340 Quinnipiac St., Bldg. 40, Wallingford CT 06492
  
  
 ---------------------------------------------------------------
 Warning -- This program may not be used in any manner that
 competes with the business of Gaussian, Inc. or will provide
 assistance to any competitor of Gaussian, Inc.  The licensee
 of this program is prohibited from giving any competitor of
 Gaussian, Inc. access to this program.  By using this program,
 the user acknowledges that Gaussian, Inc. is engaged in the
 business of creating and licensing software in the field of
 computational chemistry and represents and warrants to the
 licensee that it is not a competitor of Gaussian, Inc. and that
 it will not use this program in any manner prohibited above.
 ---------------------------------------------------------------
  

 Cite this work as:
 Gaussian 16, Revision C.01,
 M. J. Frisch, G. W. Trucks, H. B. Schlegel, G. E. Scuseria, 
 M. A. Robb, J. R. Cheeseman, G. Scalmani, V. Barone, 
 G. A. Petersson, H. Nakatsuji, X. Li, M. Caricato, A. V. Marenich, 
 J. Bloino, B. G. Janesko, R. Gomperts, B. Mennucci, H. P. Hratchian, 
 J. V. Ortiz, A. F. Izmaylov, J. L. Sonnenberg, D. Williams-Young, 
 F. Ding, F. Lipparini, F. Egidi, J. Goings, B. Peng, A. Petrone, 
 T. Henderson, D. Ranasinghe, V. G. Zakrzewski, J. Gao, N. Rega, 
 G. Zheng, W. Liang, M. Hada, M. Ehara, K. Toyota, R. Fukuda, 
 J. Hasegawa, M. Ishida, T. Nakajima, Y. Honda, O. Kitao, H. Nakai, 
 T. Vreven, K. Throssell, J. A. Montgomery, Jr., J. E. Peralta, 
 F. Ogliaro, M. J. Bearpark, J. J. Heyd, E. N. Brothers, K. N. Kudin, 
 V. N. Staroverov, T. A. Keith, R. Kobayashi, J. Normand, 
 K. Raghavachari, A. P. Rendell, J. C. Burant, S. S. Iyengar, 
 J. Tomasi, M. Cossi, J. M. Millam, M. Klene, C. Adamo, R. Cammi, 
 J. W. Ochterski, R. L. Martin, K. Morokuma, O. Farkas, 
 J. B. Foresman, and D. J. Fox, Gaussian, Inc., Wallingford CT, 2019.
 
 ******************************************
 Gaussian 16:  ES64L-G16RevC.01  3-Jul-2019
                20-Feb-2023 
 ******************************************
 %nproc=4
 Will use up to    4 processors via shared memory.
 %mem=5760MB
 %chk=gaussian_164_water_hf_adz2.chk
 -----------------------------------
 #P HF/aug-cc-pVDZ scf(maxcycle=200)
 -----------------------------------
 1/38=1,172=1/1;
 2/12=2,17=6,18=5,40=1/2;
 3/5=16,7=10,11=9,25=1,30=1/1,2,3;
 4//1;
 5/5=2,7=200,38=5/2;
 6/7=2,8=2,9=2,10=2,28=1/1;
 99/5=1,9=1/99;
 Leave Link    1 at Mon Feb 20 10:17:19 2023, MaxMem=   754974720 cpu:               0.1 elap:               0.0
 (Enter /opt/cluster/programs/g16-c.01/g16/l101.exe)
 --------------
 Gaussian input
 --------------
 Symbolic Z-matrix:
 Charge =  0 Multiplicity = 1
 O                     0.        0.11751   0. 
 H                     0.79736  -0.50079   0. 
 H                    -0.65182  -0.65269   0. 
 
 ITRead=  0  0  0
 MicOpt= -1 -1 -1
 NAtoms=      3 NQM=        3 NQMF=       0 NMMI=      0 NMMIF=      0
                NMic=       0 NMicF=      0.
                    Isotopes and Nuclear Properties:
 (Nuclear quadrupole moments (NQMom) in fm**2, nuclear magnetic moments (NMagM)
  in nuclear magnetons)

  Atom         1           2           3
 IAtWgt=          16           1           1
 AtmWgt=  15.9949146   1.0078250   1.0078250
 NucSpn=           0           1           1
 AtZEff=  -0.0000000  -0.0000000  -0.0000000
 NQMom=    0.0000000   0.0000000   0.0000000
 NMagM=    0.0000000   2.7928460   2.7928460
 AtZNuc=   8.0000000   1.0000000   1.0000000
 Leave Link  101 at Mon Feb 20 10:17:19 2023, MaxMem=   754974720 cpu:               0.7 elap:               0.2
 (Enter /opt/cluster/programs/g16-c.01/g16/l202.exe)
                          Input orientation:                          
 ---------------------------------------------------------------------
 Center     Atomic      Atomic             Coordinates (Angstroms)
 Number     Number       Type             X           Y           Z
 ---------------------------------------------------------------------
      1          8           0        0.000000    0.117510    0.000000
      2          1           0        0.797362   -0.500790    0.000000
      3          1           0       -0.651820   -0.652693    0.000000
 ---------------------------------------------------------------------
                    Distance matrix (angstroms):
                    1          2          3
     1  O    0.000000
     2  H    1.009000   0.000000
     3  H    1.009000   1.457121   0.000000
 Stoichiometry    H2O
 Framework group  C2V[C2(O),SGV(H2)]
 Deg. of freedom     2
 Full point group                 C2V     NOp   4
 Largest Abelian subgroup         C2V     NOp   4
 Largest concise Abelian subgroup C2      NOp   2
                         Standard orientation:                         
 ---------------------------------------------------------------------
 Center     Atomic      Atomic             Coordinates (Angstroms)
 Number     Number       Type             X           Y           Z
 ---------------------------------------------------------------------
      1          8           0        0.000000    0.000000    0.139611
      2          1           0        0.000000    0.728561   -0.558444
      3          1           0       -0.000000   -0.728561   -0.558444
 ---------------------------------------------------------------------
 Rotational constants (GHZ):         579.3868511         472.3572129         260.2130761
 Leave Link  202 at Mon Feb 20 10:17:19 2023, MaxMem=   754974720 cpu:               0.0 elap:               0.0
 (Enter /opt/cluster/programs/g16-c.01/g16/l301.exe)
 Standard basis: Aug-CC-pVDZ (5D, 7F)
 Ernie: Thresh=  0.10000D-02 Tol=  0.10000D-05 Strict=F.
 Ernie:  2 primitive shells out of 39 were deleted.
 There are    20 symmetry adapted cartesian basis functions of A1  symmetry.
 There are     4 symmetry adapted cartesian basis functions of A2  symmetry.
 There are     7 symmetry adapted cartesian basis functions of B1  symmetry.
 There are    12 symmetry adapted cartesian basis functions of B2  symmetry.
 There are    18 symmetry adapted basis functions of A1  symmetry.
 There are     4 symmetry adapted basis functions of A2  symmetry.
 There are     7 symmetry adapted basis functions of B1  symmetry.
 There are    12 symmetry adapted basis functions of B2  symmetry.
    41 basis functions,    65 primitive gaussians,    43 cartesian basis functions
     5 alpha electrons        5 beta electrons
       nuclear repulsion energy         8.7544797200 Hartrees.
 IExCor=    0 DFT=F Ex=HF Corr=None ExCW=0 ScaHFX=  1.000000
 ScaDFX=  1.000000  1.000000  1.000000  1.000000 ScalE2=  1.000000  1.000000
 IRadAn=      5 IRanWt=     -1 IRanGd=            0 ICorTp=0 IEmpDi=  4
 NAtoms=    3 NActive=    3 NUniq=    2 SFac= 2.25D+00 NAtFMM=   60 NAOKFM=F Big=F
 Integral buffers will be    131072 words long.
 Raffenetti 1 integral format.
 Two-electron integral symmetry is turned on.
 Leave Link  301 at Mon Feb 20 10:17:19 2023, MaxMem=   754974720 cpu:               0.2 elap:               0.0
 (Enter /opt/cluster/programs/g16-c.01/g16/l302.exe)
 NPDir=0 NMtPBC=     1 NCelOv=     1 NCel=       1 NClECP=     1 NCelD=      1
         NCelK=      1 NCelE2=     1 NClLst=     1 CellRange=     0.0.
 One-electron integrals computed using PRISM.
 One-electron integral symmetry used in STVInt
 NBasis=    41 RedAO= T EigKep=  2.64D-03  NBF=    18     4     7    12
 NBsUse=    41 1.00D-06 EigRej= -1.00D+00 NBFU=    18     4     7    12
 Leave Link  302 at Mon Feb 20 10:17:19 2023, MaxMem=   754974720 cpu:               0.4 elap:               0.1
 (Enter /opt/cluster/programs/g16-c.01/g16/l303.exe)
 DipDrv:  MaxL=1.
 Leave Link  303 at Mon Feb 20 10:17:19 2023, MaxMem=   754974720 cpu:               0.1 elap:               0.0
 (Enter /opt/cluster/programs/g16-c.01/g16/l401.exe)
 ExpMin= 2.97D-02 ExpMax= 1.17D+04 ExpMxC= 4.01D+02 IAcc=3 IRadAn=         5 AccDes= 0.00D+00
 Harris functional with IExCor=  205 and IRadAn=       5 diagonalized for initial guess.
 HarFok:  IExCor=  205 AccDes= 0.00D+00 IRadAn=         5 IDoV= 1 UseB2=F ITyADJ=14
 ICtDFT=  3500011 ScaDFX=  1.000000  1.000000  1.000000  1.000000
 FoFCou: FMM=F IPFlag=           0 FMFlag=      100000 FMFlg1=           0
         NFxFlg=           0 DoJE=T BraDBF=F KetDBF=T FulRan=T
         wScrn=  0.000000 ICntrl=       500 IOpCl=  0 I1Cent=   200000004 NGrid=           0
         NMat0=    1 NMatS0=      1 NMatT0=    0 NMatD0=    1 NMtDS0=    0 NMtDT0=    0
 Petite list used in FoFCou.
 Harris En= -76.1153363936372    
 JPrj=0 DoOrth=F DoCkMO=F.
 Initial guess orbital symmetries:
       Occupied  (A1) (A1) (B2) (A1) (B1)
       Virtual   (A1) (B2) (A1) (B1) (B2) (A1) (B2) (A1) (A1) (A2)
                 (B1) (B2) (A1) (B2) (B2) (A1) (B1) (A1) (A2) (A1)
                 (B1) (B2) (A1) (A2) (B2) (B1) (A1) (B2) (A1) (B2)
                 (A1) (B1) (A1) (A2) (A1) (B2)
 The electronic state of the initial guess is 1-A1.
 Leave Link  401 at Mon Feb 20 10:17:19 2023, MaxMem=   754974720 cpu:               0.5 elap:               0.1
 (Enter /opt/cluster/programs/g16-c.01/g16/l502.exe)
 Keep R1 ints in memory in symmetry-blocked form, NReq=1211474.
 FoFCou: FMM=F IPFlag=           0 FMFlag=           0 FMFlg1=           0
         NFxFlg=           0 DoJE=F BraDBF=F KetDBF=F FulRan=T
         wScrn=  0.000000 ICntrl=       600 IOpCl=  0 I1Cent=           0 NGrid=           0
         NMat0=    1 NMatS0=    861 NMatT0=    0 NMatD0=    1 NMtDS0=    0 NMtDT0=    0
 Petite list used in FoFCou.
 Closed shell SCF:
 Using DIIS extrapolation, IDIIS=  1040.
 NGot=   754974720 LenX=   754868251 LenY=   754865961
 Requested convergence on RMS density matrix=1.00D-08 within 200 cycles.
 Requested convergence on MAX density matrix=1.00D-06.
 Requested convergence on             energy=1.00D-06.
 No special actions if energy rises.

 Cycle   1  Pass 1  IDiag  1:
 E= -75.9588830700594    
 DIIS: error= 4.75D-02 at cycle   1 NSaved=   1.
 NSaved= 1 IEnMin= 1 EnMin= -75.9588830700594     IErMin= 1 ErrMin= 4.75D-02
 ErrMax= 4.75D-02  0.00D+00 EMaxC= 1.00D-01 BMatC= 1.07D-01 BMatP= 1.07D-01
 IDIUse=3 WtCom= 5.25D-01 WtEn= 4.75D-01
 Coeff-Com:  0.100D+01
 Coeff-En:   0.100D+01
 Coeff:      0.100D+01
 Gap=     0.463 Goal=   None    Shift=    0.000
 GapD=    0.463 DampG=2.000 DampE=0.500 DampFc=1.0000 IDamp=-1.
 RMSDP=6.05D-03 MaxDP=1.10D-01              OVMax= 1.24D-01

 Cycle   2  Pass 1  IDiag  1:
 E= -75.9969709897406     Delta-E=       -0.038087919681 Rises=F Damp=F
 DIIS: error= 4.11D-02 at cycle   2 NSaved=   2.
 NSaved= 2 IEnMin= 2 EnMin= -75.9969709897406     IErMin= 2 ErrMin= 4.11D-02
 ErrMax= 4.11D-02  0.00D+00 EMaxC= 1.00D-01 BMatC= 4.60D-02 BMatP= 1.07D-01
 IDIUse=3 WtCom= 5.89D-01 WtEn= 4.11D-01
 Coeff-Com:  0.385D+00 0.615D+00
 Coeff-En:   0.252D+00 0.748D+00
 Coeff:      0.330D+00 0.670D+00
 Gap=     0.557 Goal=   None    Shift=    0.000
 RMSDP=2.99D-03 MaxDP=5.41D-02 DE=-3.81D-02 OVMax= 5.92D-02

 Cycle   3  Pass 1  IDiag  1:
 E= -76.0293964919374     Delta-E=       -0.032425502197 Rises=F Damp=F
 DIIS: error= 4.34D-03 at cycle   3 NSaved=   3.
 NSaved= 3 IEnMin= 3 EnMin= -76.0293964919374     IErMin= 3 ErrMin= 4.34D-03
 ErrMax= 4.34D-03  0.00D+00 EMaxC= 1.00D-01 BMatC= 1.04D-03 BMatP= 4.60D-02
 IDIUse=3 WtCom= 9.57D-01 WtEn= 4.34D-02
 Coeff-Com: -0.400D-01 0.847D-01 0.955D+00
 Coeff-En:   0.000D+00 0.000D+00 0.100D+01
 Coeff:     -0.383D-01 0.810D-01 0.957D+00
 Gap=     0.540 Goal=   None    Shift=    0.000
 RMSDP=4.55D-04 MaxDP=8.41D-03 DE=-3.24D-02 OVMax= 9.88D-03

 Cycle   4  Pass 1  IDiag  1:
 E= -76.0302350347426     Delta-E=       -0.000838542805 Rises=F Damp=F
 DIIS: error= 8.34D-04 at cycle   4 NSaved=   4.
 NSaved= 4 IEnMin= 4 EnMin= -76.0302350347426     IErMin= 4 ErrMin= 8.34D-04
 ErrMax= 8.34D-04  0.00D+00 EMaxC= 1.00D-01 BMatC= 9.54D-06 BMatP= 1.04D-03
 IDIUse=3 WtCom= 9.92D-01 WtEn= 8.34D-03
 Coeff-Com:  0.958D-02-0.426D-01-0.346D+00 0.138D+01
 Coeff-En:   0.000D+00 0.000D+00 0.000D+00 0.100D+01
 Coeff:      0.950D-02-0.422D-01-0.343D+00 0.138D+01
 Gap=     0.542 Goal=   None    Shift=    0.000
 RMSDP=1.24D-04 MaxDP=1.60D-03 DE=-8.39D-04 OVMax= 2.42D-03

 Cycle   5  Pass 1  IDiag  1:
 E= -76.0302593760524     Delta-E=       -0.000024341310 Rises=F Damp=F
 DIIS: error= 2.25D-04 at cycle   5 NSaved=   5.
 NSaved= 5 IEnMin= 5 EnMin= -76.0302593760524     IErMin= 5 ErrMin= 2.25D-04
 ErrMax= 2.25D-04  0.00D+00 EMaxC= 1.00D-01 BMatC= 4.32D-07 BMatP= 9.54D-06
 IDIUse=3 WtCom= 9.98D-01 WtEn= 2.25D-03
 Coeff-Com: -0.658D-04 0.364D-02 0.262D-01-0.285D+00 0.125D+01
 Coeff-En:   0.000D+00 0.000D+00 0.000D+00 0.000D+00 0.100D+01
 Coeff:     -0.657D-04 0.363D-02 0.261D-01-0.284D+00 0.125D+01
 Gap=     0.542 Goal=   None    Shift=    0.000
 RMSDP=2.89D-05 MaxDP=5.01D-04 DE=-2.43D-05 OVMax= 6.94D-04

 Cycle   6  Pass 1  IDiag  1:
 E= -76.0302606808280     Delta-E=       -0.000001304776 Rises=F Damp=F
 DIIS: error= 4.22D-05 at cycle   6 NSaved=   6.
 NSaved= 6 IEnMin= 6 EnMin= -76.0302606808280     IErMin= 6 ErrMin= 4.22D-05
 ErrMax= 4.22D-05  0.00D+00 EMaxC= 1.00D-01 BMatC= 1.72D-08 BMatP= 4.32D-07
 IDIUse=1 WtCom= 1.00D+00 WtEn= 0.00D+00
 Coeff-Com: -0.432D-03 0.146D-02 0.122D-01-0.216D-01-0.235D+00 0.124D+01
 Coeff:     -0.432D-03 0.146D-02 0.122D-01-0.216D-01-0.235D+00 0.124D+01
 Gap=     0.542 Goal=   None    Shift=    0.000
 RMSDP=5.32D-06 MaxDP=1.19D-04 DE=-1.30D-06 OVMax= 1.60D-04

 Cycle   7  Pass 1  IDiag  1:
 E= -76.0302607329835     Delta-E=       -0.000000052155 Rises=F Damp=F
 DIIS: error= 5.91D-06 at cycle   7 NSaved=   7.
 NSaved= 7 IEnMin= 7 EnMin= -76.0302607329835     IErMin= 7 ErrMin= 5.91D-06
 ErrMax= 5.91D-06  0.00D+00 EMaxC= 1.00D-01 BMatC= 6.19D-10 BMatP= 1.72D-08
 IDIUse=1 WtCom= 1.00D+00 WtEn= 0.00D+00
 Coeff-Com:  0.137D-03-0.607D-03-0.522D-02 0.216D-01 0.102D-01-0.329D+00
 Coeff-Com:  0.130D+01
 Coeff:      0.137D-03-0.607D-03-0.522D-02 0.216D-01 0.102D-01-0.329D+00
 Coeff:      0.130D+01
 Gap=     0.542 Goal=   None    Shift=    0.000
 RMSDP=9.11D-07 MaxDP=1.40D-05 DE=-5.22D-08 OVMax= 2.37D-05

 Cycle   8  Pass 1  IDiag  1:
 E= -76.0302607343980     Delta-E=       -0.000000001415 Rises=F Damp=F
 DIIS: error= 7.21D-07 at cycle   8 NSaved=   8.
 NSaved= 8 IEnMin= 8 EnMin= -76.0302607343980     IErMin= 8 ErrMin= 7.21D-07
 ErrMax= 7.21D-07  0.00D+00 EMaxC= 1.00D-01 BMatC= 1.48D-11 BMatP= 6.19D-10
 IDIUse=1 WtCom= 1.00D+00 WtEn= 0.00D+00
 Coeff-Com: -0.295D-04 0.143D-03 0.128D-02-0.624D-02 0.312D-02 0.711D-01
 Coeff-Com: -0.424D+00 0.135D+01
 Coeff:     -0.295D-04 0.143D-03 0.128D-02-0.624D-02 0.312D-02 0.711D-01
 Coeff:     -0.424D+00 0.135D+01
 Gap=     0.542 Goal=   None    Shift=    0.000
 RMSDP=2.04D-07 MaxDP=2.70D-06 DE=-1.41D-09 OVMax= 3.78D-06

 Cycle   9  Pass 1  IDiag  1:
 E= -76.0302607344380     Delta-E=       -0.000000000040 Rises=F Damp=F
 DIIS: error= 1.12D-07 at cycle   9 NSaved=   9.
 NSaved= 9 IEnMin= 9 EnMin= -76.0302607344380     IErMin= 9 ErrMin= 1.12D-07
 ErrMax= 1.12D-07  0.00D+00 EMaxC= 1.00D-01 BMatC= 4.94D-13 BMatP= 1.48D-11
 IDIUse=1 WtCom= 1.00D+00 WtEn= 0.00D+00
 Coeff-Com:  0.569D-05-0.282D-04-0.276D-03 0.148D-02-0.122D-02-0.152D-01
 Coeff-Com:  0.111D+00-0.473D+00 0.138D+01
 Coeff:      0.569D-05-0.282D-04-0.276D-03 0.148D-02-0.122D-02-0.152D-01
 Coeff:      0.111D+00-0.473D+00 0.138D+01
 Gap=     0.542 Goal=   None    Shift=    0.000
 RMSDP=3.42D-08 MaxDP=4.44D-07 DE=-4.00D-11 OVMax= 6.89D-07

 Cycle  10  Pass 1  IDiag  1:
 E= -76.0302607344394     Delta-E=       -0.000000000001 Rises=F Damp=F
 DIIS: error= 2.84D-08 at cycle  10 NSaved=  10.
 NSaved=10 IEnMin=10 EnMin= -76.0302607344394     IErMin=10 ErrMin= 2.84D-08
 ErrMax= 2.84D-08  0.00D+00 EMaxC= 1.00D-01 BMatC= 2.47D-14 BMatP= 4.94D-13
 IDIUse=1 WtCom= 1.00D+00 WtEn= 0.00D+00
 Coeff-Com: -0.592D-06 0.305D-05 0.396D-04-0.273D-03 0.437D-03 0.195D-02
 Coeff-Com: -0.214D-01 0.112D+00-0.515D+00 0.142D+01
 Coeff:     -0.592D-06 0.305D-05 0.396D-04-0.273D-03 0.437D-03 0.195D-02
 Coeff:     -0.214D-01 0.112D+00-0.515D+00 0.142D+01
 Gap=     0.542 Goal=   None    Shift=    0.000
 RMSDP=8.41D-09 MaxDP=8.61D-08 DE=-1.34D-12 OVMax= 2.15D-07

 SCF Done:  E(RHF) =  -76.0302607344     A.U. after   10 cycles
            NFock= 10  Conv=0.84D-08     -V/T= 2.0036
 KE= 7.575668002020D+01 PE=-1.979102720835D+02 EE= 3.736885160887D+01
 Leave Link  502 at Mon Feb 20 10:17:19 2023, MaxMem=   754974720 cpu:               0.6 elap:               0.1
 (Enter /opt/cluster/programs/g16-c.01/g16/l601.exe)
 Copying SCF densities to generalized density rwf, IOpCl= 0 IROHF=0.

 **********************************************************************

            Population analysis using the SCF Density.

 **********************************************************************

 Orbital symmetries:
       Occupied  (A1) (A1) (B2) (A1) (B1)
       Virtual   (A1) (B2) (A1) (B1) (A1) (B2) (B2) (A1) (A1) (A2)
                 (B1) (B2) (A1) (B2) (B2) (A1) (B1) (A1) (A2) (A1)
                 (B2) (B1) (A1) (A2) (B2) (B1) (A1) (B2) (A1) (B2)
                 (A1) (B1) (A1) (A2) (A1) (B2)
 The electronic state is 1-A1.
 Alpha  occ. eigenvalues --  -20.59099  -1.33982  -0.66889  -0.59916  -0.50908
 Alpha virt. eigenvalues --    0.03333   0.05872   0.17325   0.20036   0.21975
 Alpha virt. eigenvalues --    0.23681   0.26931   0.34442   0.37456   0.38930
 Alpha virt. eigenvalues --    0.40916   0.54339   0.63063   0.65436   0.76631
 Alpha virt. eigenvalues --    0.94501   1.11528   1.12367   1.14300   1.25936
 Alpha virt. eigenvalues --    1.43168   1.45270   1.58204   1.96124   1.99611
 Alpha virt. eigenvalues --    2.10563   2.18905   2.40894   2.53104   2.66483
 Alpha virt. eigenvalues --    3.05340   3.67541   3.68204   3.68736   3.93757
 Alpha virt. eigenvalues --    4.20606
          Condensed to atoms (all electrons):
               1          2          3
     1  O    7.774452   0.308657   0.308657
     2  H    0.308657   0.501497  -0.006036
     3  H    0.308657  -0.006036   0.501497
 Mulliken charges:
               1
     1  O   -0.391765
     2  H    0.195883
     3  H    0.195883
 Sum of Mulliken charges =  -0.00000
 Mulliken charges with hydrogens summed into heavy atoms:
               1
     1  O   -0.000000
 Electronic spatial extent (au):  <R**2>=             20.1942
 Charge=             -0.0000 electrons
 Dipole moment (field-independent basis, Debye):
    X=             -0.0000    Y=              0.0000    Z=             -2.2304  Tot=              2.2304
 Quadrupole moment (field-independent basis, Debye-Ang):
   XX=             -7.6875   YY=             -4.7387   ZZ=             -5.8918
   XY=              0.0000   XZ=              0.0000   YZ=             -0.0000
 Traceless Quadrupole moment (field-independent basis, Debye-Ang):
   XX=             -1.5815   YY=              1.3673   ZZ=              0.2142
   XY=              0.0000   XZ=              0.0000   YZ=             -0.0000
 Octapole moment (field-independent basis, Debye-Ang**2):
  XXX=              0.0000  YYY=              0.0000  ZZZ=             -1.4117  XYY=             -0.0000
  XXY=             -0.0000  XXZ=             -0.2822  XZZ=             -0.0000  YZZ=              0.0000
  YYZ=             -1.4603  XYZ=             -0.0000
 Hexadecapole moment (field-independent basis, Debye-Ang**3):
 XXXX=             -6.9011 YYYY=             -6.7689 ZZZZ=             -7.7631 XXXY=             -0.0000
 XXXZ=             -0.0000 YYYX=             -0.0000 YYYZ=             -0.0000 ZZZX=             -0.0000
 ZZZY=             -0.0000 XXYY=             -2.5334 XXZZ=             -2.5412 YYZZ=             -1.8773
 XXYZ=              0.0000 YYXZ=              0.0000 ZZXY=              0.0000
 N-N= 8.754479719960D+00 E-N=-1.979102724401D+02  KE= 7.575668002020D+01
 Symmetry A1   KE= 6.778843012963D+01
 Symmetry A2   KE= 5.980981865943D-34
 Symmetry B1   KE= 4.464853433992D+00
 Symmetry B2   KE= 3.503396456576D+00
 No NMR shielding tensors so no spin-rotation constants.
 Leave Link  601 at Mon Feb 20 10:17:19 2023, MaxMem=   754974720 cpu:               0.3 elap:               0.1
 (Enter /opt/cluster/programs/g16-c.01/g16/l9999.exe)
 Unable to Open any file for archive entry.
 1\1\GINC-NODE102\SP\RHF\Aug-CC-pVDZ\H2O1\BOITTIER\20-Feb-2023\0\\#P HF
 /aug-cc-pVDZ scf(maxcycle=200)\\Gaussian input\\0,1\O,0,0.,0.11751,0.\
 H,0,0.7973622306,-0.5007896629,0.\H,0,-0.6518197504,-0.6526925792,0.\\
 Version=ES64L-G16RevC.01\State=1-A1\HF=-76.0302607\RMSD=8.415e-09\Dipo
 le=0.0914797,-0.8727328,0.\Quadrupole=1.0072342,0.1685851,-1.1758193,0
 .0888836,0.,0.\PG=C02V [C2(O1),SGV(H2)]\\@
 The archive entry for this job was punched.


 IF AT FIRST YOU DON'T SUCCEED, TRY, TRY AGAIN.
 THEN GIVE UP;
 THERE'S NO USE BEING A DAMN FOOL ABOUT IT.

                                 -- W. C. FIELDS
 Job cpu time:       0 days  0 hours  0 minutes  3.2 seconds.
 Elapsed time:       0 days  0 hours  0 minutes  0.8 seconds.
 File lengths (MBytes):  RWF=      6 Int=      0 D2E=      0 Chk=      1 Scr=      1
 Normal termination of Gaussian 16 at Mon Feb 20 10:17:19 2023.
