 Entering Gaussian System, Link 0=/opt/cluster/programs/g16-c.01/g16/g16
 Input=/scratch/boittier/jobs/tmp.7312065/gaussian_57_water_hf_adz.com
 Output=/scratch/boittier/jobs/tmp.7312065/gaussian_57_water_hf_adz.out
 Initial command:
 /opt/cluster/programs/g16-c.01/g16/l1.exe "/scratch/boittier/jobs/tmp.7312065/Gau-94409.inp" -scrdir="/scratch/boittier/jobs/tmp.7312065/"
 Entering Link 1 = /opt/cluster/programs/g16-c.01/g16/l1.exe PID=     94410.
  
 Copyright (c) 1988-2019, Gaussian, Inc.  All Rights Reserved.
  
 This is part of the Gaussian(R) 16 program.  It is based on
 the Gaussian(R) 09 system (copyright 2009, Gaussian, Inc.),
 the Gaussian(R) 03 system (copyright 2003, Gaussian, Inc.),
 the Gaussian(R) 98 system (copyright 1998, Gaussian, Inc.),
 the Gaussian(R) 94 system (copyright 1995, Gaussian, Inc.),
 the Gaussian 92(TM) system (copyright 1992, Gaussian, Inc.),
 the Gaussian 90(TM) system (copyright 1990, Gaussian, Inc.),
 the Gaussian 88(TM) system (copyright 1988, Gaussian, Inc.),
 the Gaussian 86(TM) system (copyright 1986, Carnegie Mellon
 University), and the Gaussian 82(TM) system (copyright 1983,
 Carnegie Mellon University). Gaussian is a federally registered
 trademark of Gaussian, Inc.
  
 This software contains proprietary and confidential information,
 including trade secrets, belonging to Gaussian, Inc.
  
 This software is provided under written license and may be
 used, copied, transmitted, or stored only in accord with that
 written license.
  
 The following legend is applicable only to US Government
 contracts under FAR:
  
                    RESTRICTED RIGHTS LEGEND
  
 Use, reproduction and disclosure by the US Government is
 subject to restrictions as set forth in subparagraphs (a)
 and (c) of the Commercial Computer Software - Restricted
 Rights clause in FAR 52.227-19.
  
 Gaussian, Inc.
 340 Quinnipiac St., Bldg. 40, Wallingford CT 06492
  
  
 ---------------------------------------------------------------
 Warning -- This program may not be used in any manner that
 competes with the business of Gaussian, Inc. or will provide
 assistance to any competitor of Gaussian, Inc.  The licensee
 of this program is prohibited from giving any competitor of
 Gaussian, Inc. access to this program.  By using this program,
 the user acknowledges that Gaussian, Inc. is engaged in the
 business of creating and licensing software in the field of
 computational chemistry and represents and warrants to the
 licensee that it is not a competitor of Gaussian, Inc. and that
 it will not use this program in any manner prohibited above.
 ---------------------------------------------------------------
  

 Cite this work as:
 Gaussian 16, Revision C.01,
 M. J. Frisch, G. W. Trucks, H. B. Schlegel, G. E. Scuseria, 
 M. A. Robb, J. R. Cheeseman, G. Scalmani, V. Barone, 
 G. A. Petersson, H. Nakatsuji, X. Li, M. Caricato, A. V. Marenich, 
 J. Bloino, B. G. Janesko, R. Gomperts, B. Mennucci, H. P. Hratchian, 
 J. V. Ortiz, A. F. Izmaylov, J. L. Sonnenberg, D. Williams-Young, 
 F. Ding, F. Lipparini, F. Egidi, J. Goings, B. Peng, A. Petrone, 
 T. Henderson, D. Ranasinghe, V. G. Zakrzewski, J. Gao, N. Rega, 
 G. Zheng, W. Liang, M. Hada, M. Ehara, K. Toyota, R. Fukuda, 
 J. Hasegawa, M. Ishida, T. Nakajima, Y. Honda, O. Kitao, H. Nakai, 
 T. Vreven, K. Throssell, J. A. Montgomery, Jr., J. E. Peralta, 
 F. Ogliaro, M. J. Bearpark, J. J. Heyd, E. N. Brothers, K. N. Kudin, 
 V. N. Staroverov, T. A. Keith, R. Kobayashi, J. Normand, 
 K. Raghavachari, A. P. Rendell, J. C. Burant, S. S. Iyengar, 
 J. Tomasi, M. Cossi, J. M. Millam, M. Klene, C. Adamo, R. Cammi, 
 J. W. Ochterski, R. L. Martin, K. Morokuma, O. Farkas, 
 J. B. Foresman, and D. J. Fox, Gaussian, Inc., Wallingford CT, 2019.
 
 ******************************************
 Gaussian 16:  ES64L-G16RevC.01  3-Jul-2019
                20-Feb-2023 
 ******************************************
 %nproc=4
 Will use up to    4 processors via shared memory.
 %mem=5760MB
 %chk=gaussian_57_water_hf_adz.chk
 -----------------------------------
 #P HF/aug-cc-pVDZ scf(maxcycle=200)
 -----------------------------------
 1/38=1,172=1/1;
 2/12=2,17=6,18=5,40=1/2;
 3/5=16,7=10,11=9,25=1,30=1/1,2,3;
 4//1;
 5/5=2,7=200,38=5/2;
 6/7=2,8=2,9=2,10=2,28=1/1;
 99/5=1,9=1/99;
 Leave Link    1 at Mon Feb 20 10:27:34 2023, MaxMem=   754974720 cpu:               0.1 elap:               0.0
 (Enter /opt/cluster/programs/g16-c.01/g16/l101.exe)
 --------------
 Gaussian input
 --------------
 Symbolic Z-matrix:
 Charge =  0 Multiplicity = 1
 O                     0.        0.11751   0. 
 H                     0.71834  -0.43951   0. 
 H                    -0.92349  -0.289     0. 
 
 ITRead=  0  0  0
 MicOpt= -1 -1 -1
 NAtoms=      3 NQM=        3 NQMF=       0 NMMI=      0 NMMIF=      0
                NMic=       0 NMicF=      0.
                    Isotopes and Nuclear Properties:
 (Nuclear quadrupole moments (NQMom) in fm**2, nuclear magnetic moments (NMagM)
  in nuclear magnetons)

  Atom         1           2           3
 IAtWgt=          16           1           1
 AtmWgt=  15.9949146   1.0078250   1.0078250
 NucSpn=           0           1           1
 AtZEff=  -0.0000000  -0.0000000  -0.0000000
 NQMom=    0.0000000   0.0000000   0.0000000
 NMagM=    0.0000000   2.7928460   2.7928460
 AtZNuc=   8.0000000   1.0000000   1.0000000
 Leave Link  101 at Mon Feb 20 10:27:34 2023, MaxMem=   754974720 cpu:               0.7 elap:               0.2
 (Enter /opt/cluster/programs/g16-c.01/g16/l202.exe)
                          Input orientation:                          
 ---------------------------------------------------------------------
 Center     Atomic      Atomic             Coordinates (Angstroms)
 Number     Number       Type             X           Y           Z
 ---------------------------------------------------------------------
      1          8           0        0.000000    0.117510    0.000000
      2          1           0        0.718337   -0.439511    0.000000
      3          1           0       -0.923486   -0.289005    0.000000
 ---------------------------------------------------------------------
                    Distance matrix (angstroms):
                    1          2          3
     1  O    0.000000
     2  H    0.909000   0.000000
     3  H    1.009000   1.648708   0.000000
 Stoichiometry    H2O
 Framework group  CS[SG(H2O)]
 Deg. of freedom     3
 Full point group                 CS      NOp   2
 Largest Abelian subgroup         CS      NOp   2
 Largest concise Abelian subgroup C1      NOp   1
                         Standard orientation:                         
 ---------------------------------------------------------------------
 Center     Atomic      Atomic             Coordinates (Angstroms)
 Number     Number       Type             X           Y           Z
 ---------------------------------------------------------------------
      1          8           0        0.000000    0.098513    0.000000
      2          1           0        0.818586   -0.296706    0.000000
      3          1           0       -0.818586   -0.491400    0.000000
 ---------------------------------------------------------------------
 Rotational constants (GHZ):        1187.6631062         366.6046899         280.1337490
 Leave Link  202 at Mon Feb 20 10:27:34 2023, MaxMem=   754974720 cpu:               0.0 elap:               0.0
 (Enter /opt/cluster/programs/g16-c.01/g16/l301.exe)
 Standard basis: Aug-CC-pVDZ (5D, 7F)
 Ernie: Thresh=  0.10000D-02 Tol=  0.10000D-05 Strict=F.
 Ernie:  2 primitive shells out of 39 were deleted.
 There are    32 symmetry adapted cartesian basis functions of A'  symmetry.
 There are    11 symmetry adapted cartesian basis functions of A"  symmetry.
 There are    30 symmetry adapted basis functions of A'  symmetry.
 There are    11 symmetry adapted basis functions of A"  symmetry.
    41 basis functions,    65 primitive gaussians,    43 cartesian basis functions
     5 alpha electrons        5 beta electrons
       nuclear repulsion energy         9.1738468181 Hartrees.
 IExCor=    0 DFT=F Ex=HF Corr=None ExCW=0 ScaHFX=  1.000000
 ScaDFX=  1.000000  1.000000  1.000000  1.000000 ScalE2=  1.000000  1.000000
 IRadAn=      5 IRanWt=     -1 IRanGd=            0 ICorTp=0 IEmpDi=  4
 NAtoms=    3 NActive=    3 NUniq=    3 SFac= 1.00D+00 NAtFMM=   60 NAOKFM=F Big=F
 Integral buffers will be    131072 words long.
 Raffenetti 1 integral format.
 Two-electron integral symmetry is turned on.
 Leave Link  301 at Mon Feb 20 10:27:34 2023, MaxMem=   754974720 cpu:               0.2 elap:               0.0
 (Enter /opt/cluster/programs/g16-c.01/g16/l302.exe)
 NPDir=0 NMtPBC=     1 NCelOv=     1 NCel=       1 NClECP=     1 NCelD=      1
         NCelK=      1 NCelE2=     1 NClLst=     1 CellRange=     0.0.
 One-electron integrals computed using PRISM.
 One-electron integral symmetry used in STVInt
 NBasis=    41 RedAO= T EigKep=  2.77D-03  NBF=    30    11
 NBsUse=    41 1.00D-06 EigRej= -1.00D+00 NBFU=    30    11
 Leave Link  302 at Mon Feb 20 10:27:34 2023, MaxMem=   754974720 cpu:               0.4 elap:               0.1
 (Enter /opt/cluster/programs/g16-c.01/g16/l303.exe)
 DipDrv:  MaxL=1.
 Leave Link  303 at Mon Feb 20 10:27:34 2023, MaxMem=   754974720 cpu:               0.1 elap:               0.0
 (Enter /opt/cluster/programs/g16-c.01/g16/l401.exe)
 ExpMin= 2.97D-02 ExpMax= 1.17D+04 ExpMxC= 4.01D+02 IAcc=3 IRadAn=         5 AccDes= 0.00D+00
 Harris functional with IExCor=  205 and IRadAn=       5 diagonalized for initial guess.
 HarFok:  IExCor=  205 AccDes= 0.00D+00 IRadAn=         5 IDoV= 1 UseB2=F ITyADJ=14
 ICtDFT=  3500011 ScaDFX=  1.000000  1.000000  1.000000  1.000000
 FoFCou: FMM=F IPFlag=           0 FMFlag=      100000 FMFlg1=           0
         NFxFlg=           0 DoJE=T BraDBF=F KetDBF=T FulRan=T
         wScrn=  0.000000 ICntrl=       500 IOpCl=  0 I1Cent=   200000004 NGrid=           0
         NMat0=    1 NMatS0=      1 NMatT0=    0 NMatD0=    1 NMtDS0=    0 NMtDT0=    0
 Petite list used in FoFCou.
 Harris En= -76.1195613188111    
 JPrj=0 DoOrth=F DoCkMO=F.
 Initial guess orbital symmetries:
       Occupied  (A') (A') (A') (A') (A")
       Virtual   (A') (A') (A') (A") (A') (A') (A') (A') (A") (A')
                 (A") (A') (A') (A') (A') (A') (A") (A') (A") (A')
                 (A") (A') (A') (A') (A") (A") (A') (A') (A') (A')
                 (A') (A") (A') (A") (A') (A')
 The electronic state of the initial guess is 1-A'.
 Leave Link  401 at Mon Feb 20 10:27:34 2023, MaxMem=   754974720 cpu:               0.6 elap:               0.1
 (Enter /opt/cluster/programs/g16-c.01/g16/l502.exe)
 Keep R1 ints in memory in symmetry-blocked form, NReq=1210682.
 FoFCou: FMM=F IPFlag=           0 FMFlag=           0 FMFlg1=           0
         NFxFlg=           0 DoJE=F BraDBF=F KetDBF=F FulRan=T
         wScrn=  0.000000 ICntrl=       600 IOpCl=  0 I1Cent=           0 NGrid=           0
         NMat0=    1 NMatS0=    861 NMatT0=    0 NMatD0=    1 NMtDS0=    0 NMtDT0=    0
 Petite list used in FoFCou.
 Closed shell SCF:
 Using DIIS extrapolation, IDIIS=  1040.
 NGot=   754974720 LenX=   754771907 LenY=   754769617
 Requested convergence on RMS density matrix=1.00D-08 within 200 cycles.
 Requested convergence on MAX density matrix=1.00D-06.
 Requested convergence on             energy=1.00D-06.
 No special actions if energy rises.

 Cycle   1  Pass 1  IDiag  1:
 E= -75.9525146105997    
 DIIS: error= 5.21D-02 at cycle   1 NSaved=   1.
 NSaved= 1 IEnMin= 1 EnMin= -75.9525146105997     IErMin= 1 ErrMin= 5.21D-02
 ErrMax= 5.21D-02  0.00D+00 EMaxC= 1.00D-01 BMatC= 1.21D-01 BMatP= 1.21D-01
 IDIUse=3 WtCom= 4.79D-01 WtEn= 5.21D-01
 Coeff-Com:  0.100D+01
 Coeff-En:   0.100D+01
 Coeff:      0.100D+01
 Gap=     0.456 Goal=   None    Shift=    0.000
 GapD=    0.456 DampG=2.000 DampE=0.500 DampFc=1.0000 IDamp=-1.
 RMSDP=6.38D-03 MaxDP=1.20D-01              OVMax= 1.21D-01

 Cycle   2  Pass 1  IDiag  1:
 E= -75.9989735703356     Delta-E=       -0.046458959736 Rises=F Damp=F
 DIIS: error= 4.02D-02 at cycle   2 NSaved=   2.
 NSaved= 2 IEnMin= 2 EnMin= -75.9989735703356     IErMin= 2 ErrMin= 4.02D-02
 ErrMax= 4.02D-02  0.00D+00 EMaxC= 1.00D-01 BMatC= 4.69D-02 BMatP= 1.21D-01
 IDIUse=3 WtCom= 5.98D-01 WtEn= 4.02D-01
 Coeff-Com:  0.373D+00 0.627D+00
 Coeff-En:   0.208D+00 0.792D+00
 Coeff:      0.306D+00 0.694D+00
 Gap=     0.559 Goal=   None    Shift=    0.000
 RMSDP=2.96D-03 MaxDP=5.53D-02 DE=-4.65D-02 OVMax= 5.98D-02

 Cycle   3  Pass 1  IDiag  1:
 E= -76.0311198204796     Delta-E=       -0.032146250144 Rises=F Damp=F
 DIIS: error= 4.90D-03 at cycle   3 NSaved=   3.
 NSaved= 3 IEnMin= 3 EnMin= -76.0311198204796     IErMin= 3 ErrMin= 4.90D-03
 ErrMax= 4.90D-03  0.00D+00 EMaxC= 1.00D-01 BMatC= 1.20D-03 BMatP= 4.69D-02
 IDIUse=3 WtCom= 9.51D-01 WtEn= 4.90D-02
 Coeff-Com: -0.370D-01 0.943D-01 0.943D+00
 Coeff-En:   0.000D+00 0.000D+00 0.100D+01
 Coeff:     -0.352D-01 0.897D-01 0.946D+00
 Gap=     0.540 Goal=   None    Shift=    0.000
 RMSDP=4.81D-04 MaxDP=8.40D-03 DE=-3.21D-02 OVMax= 9.05D-03

 Cycle   4  Pass 1  IDiag  1:
 E= -76.0320284428187     Delta-E=       -0.000908622339 Rises=F Damp=F
 DIIS: error= 5.94D-04 at cycle   4 NSaved=   4.
 NSaved= 4 IEnMin= 4 EnMin= -76.0320284428187     IErMin= 4 ErrMin= 5.94D-04
 ErrMax= 5.94D-04  0.00D+00 EMaxC= 1.00D-01 BMatC= 7.78D-06 BMatP= 1.20D-03
 IDIUse=3 WtCom= 9.94D-01 WtEn= 5.94D-03
 Coeff-Com:  0.839D-02-0.433D-01-0.321D+00 0.136D+01
 Coeff-En:   0.000D+00 0.000D+00 0.000D+00 0.100D+01
 Coeff:      0.834D-02-0.430D-01-0.319D+00 0.135D+01
 Gap=     0.541 Goal=   None    Shift=    0.000
 RMSDP=1.20D-04 MaxDP=1.19D-03 DE=-9.09D-04 OVMax= 2.54D-03

 Cycle   5  Pass 1  IDiag  1:
 E= -76.0320481366822     Delta-E=       -0.000019693863 Rises=F Damp=F
 DIIS: error= 1.64D-04 at cycle   5 NSaved=   5.
 NSaved= 5 IEnMin= 5 EnMin= -76.0320481366822     IErMin= 5 ErrMin= 1.64D-04
 ErrMax= 1.64D-04  0.00D+00 EMaxC= 1.00D-01 BMatC= 3.80D-07 BMatP= 7.78D-06
 IDIUse=3 WtCom= 9.98D-01 WtEn= 1.64D-03
 Coeff-Com:  0.327D-03 0.221D-02 0.120D-01-0.258D+00 0.124D+01
 Coeff-En:   0.000D+00 0.000D+00 0.000D+00 0.000D+00 0.100D+01
 Coeff:      0.326D-03 0.220D-02 0.120D-01-0.258D+00 0.124D+01
 Gap=     0.541 Goal=   None    Shift=    0.000
 RMSDP=3.08D-05 MaxDP=3.68D-04 DE=-1.97D-05 OVMax= 7.28D-04

 Cycle   6  Pass 1  IDiag  1:
 E= -76.0320493442502     Delta-E=       -0.000001207568 Rises=F Damp=F
 DIIS: error= 3.38D-05 at cycle   6 NSaved=   6.
 NSaved= 6 IEnMin= 6 EnMin= -76.0320493442502     IErMin= 6 ErrMin= 3.38D-05
 ErrMax= 3.38D-05  0.00D+00 EMaxC= 1.00D-01 BMatC= 1.66D-08 BMatP= 3.80D-07
 IDIUse=1 WtCom= 1.00D+00 WtEn= 0.00D+00
 Coeff-Com: -0.435D-03 0.168D-02 0.135D-01-0.255D-01-0.229D+00 0.124D+01
 Coeff:     -0.435D-03 0.168D-02 0.135D-01-0.255D-01-0.229D+00 0.124D+01
 Gap=     0.541 Goal=   None    Shift=    0.000
 RMSDP=6.05D-06 MaxDP=9.48D-05 DE=-1.21D-06 OVMax= 1.73D-04

 Cycle   7  Pass 1  IDiag  1:
 E= -76.0320493995080     Delta-E=       -0.000000055258 Rises=F Damp=F
 DIIS: error= 7.92D-06 at cycle   7 NSaved=   7.
 NSaved= 7 IEnMin= 7 EnMin= -76.0320493995080     IErMin= 7 ErrMin= 7.92D-06
 ErrMax= 7.92D-06  0.00D+00 EMaxC= 1.00D-01 BMatC= 8.74D-10 BMatP= 1.66D-08
 IDIUse=1 WtCom= 1.00D+00 WtEn= 0.00D+00
 Coeff-Com:  0.153D-03-0.765D-03-0.609D-02 0.252D-01 0.184D-01-0.438D+00
 Coeff-Com:  0.140D+01
 Coeff:      0.153D-03-0.765D-03-0.609D-02 0.252D-01 0.184D-01-0.438D+00
 Coeff:      0.140D+01
 Gap=     0.541 Goal=   None    Shift=    0.000
 RMSDP=1.23D-06 MaxDP=2.44D-05 DE=-5.53D-08 OVMax= 3.70D-05

 Cycle   8  Pass 1  IDiag  1:
 E= -76.0320494019948     Delta-E=       -0.000000002487 Rises=F Damp=F
 DIIS: error= 1.05D-06 at cycle   8 NSaved=   8.
 NSaved= 8 IEnMin= 8 EnMin= -76.0320494019948     IErMin= 8 ErrMin= 1.05D-06
 ErrMax= 1.05D-06  0.00D+00 EMaxC= 1.00D-01 BMatC= 2.43D-11 BMatP= 8.74D-10
 IDIUse=1 WtCom= 1.00D+00 WtEn= 0.00D+00
 Coeff-Com: -0.940D-05 0.645D-04 0.577D-03-0.382D-02 0.643D-02 0.374D-01
 Coeff-Com: -0.281D+00 0.124D+01
 Coeff:     -0.940D-05 0.645D-04 0.577D-03-0.382D-02 0.643D-02 0.374D-01
 Coeff:     -0.281D+00 0.124D+01
 Gap=     0.541 Goal=   None    Shift=    0.000
 RMSDP=2.12D-07 MaxDP=3.13D-06 DE=-2.49D-09 OVMax= 4.53D-06

 Cycle   9  Pass 1  IDiag  1:
 E= -76.0320494020525     Delta-E=       -0.000000000058 Rises=F Damp=F
 DIIS: error= 1.51D-07 at cycle   9 NSaved=   9.
 NSaved= 9 IEnMin= 9 EnMin= -76.0320494020525     IErMin= 9 ErrMin= 1.51D-07
 ErrMax= 1.51D-07  0.00D+00 EMaxC= 1.00D-01 BMatC= 5.10D-13 BMatP= 2.43D-11
 IDIUse=1 WtCom= 1.00D+00 WtEn= 0.00D+00
 Coeff-Com: -0.550D-05 0.272D-04 0.214D-03-0.814D-03-0.104D-02 0.146D-01
 Coeff-Com: -0.368D-01-0.645D-01 0.109D+01
 Coeff:     -0.550D-05 0.272D-04 0.214D-03-0.814D-03-0.104D-02 0.146D-01
 Coeff:     -0.368D-01-0.645D-01 0.109D+01
 Gap=     0.541 Goal=   None    Shift=    0.000
 RMSDP=3.65D-08 MaxDP=3.87D-07 DE=-5.76D-11 OVMax= 5.47D-07

 Cycle  10  Pass 1  IDiag  1:
 E= -76.0320494020534     Delta-E=       -0.000000000001 Rises=F Damp=F
 DIIS: error= 3.40D-08 at cycle  10 NSaved=  10.
 NSaved=10 IEnMin=10 EnMin= -76.0320494020534     IErMin=10 ErrMin= 3.40D-08
 ErrMax= 3.40D-08  0.00D+00 EMaxC= 1.00D-01 BMatC= 2.20D-14 BMatP= 5.10D-13
 IDIUse=1 WtCom= 1.00D+00 WtEn= 0.00D+00
 Coeff-Com:  0.144D-05-0.754D-05-0.611D-04 0.274D-03 0.146D-03-0.439D-02
 Coeff-Com:  0.156D-01-0.118D-01-0.317D+00 0.132D+01
 Coeff:      0.144D-05-0.754D-05-0.611D-04 0.274D-03 0.146D-03-0.439D-02
 Coeff:      0.156D-01-0.118D-01-0.317D+00 0.132D+01
 Gap=     0.541 Goal=   None    Shift=    0.000
 RMSDP=7.47D-09 MaxDP=7.48D-08 DE=-9.38D-13 OVMax= 1.26D-07

 SCF Done:  E(RHF) =  -76.0320494021     A.U. after   10 cycles
            NFock= 10  Conv=0.75D-08     -V/T= 2.0015
 KE= 7.591830899498D+01 PE=-1.988797874843D+02 EE= 3.775558226926D+01
 Leave Link  502 at Mon Feb 20 10:27:34 2023, MaxMem=   754974720 cpu:               0.6 elap:               0.1
 (Enter /opt/cluster/programs/g16-c.01/g16/l601.exe)
 Copying SCF densities to generalized density rwf, IOpCl= 0 IROHF=0.

 **********************************************************************

            Population analysis using the SCF Density.

 **********************************************************************

 Orbital symmetries:
       Occupied  (A') (A') (A') (A') (A")
       Virtual   (A') (A') (A') (A") (A') (A') (A') (A') (A") (A')
                 (A") (A') (A') (A') (A') (A') (A") (A') (A") (A')
                 (A') (A") (A') (A') (A") (A") (A') (A') (A') (A')
                 (A') (A") (A') (A") (A') (A')
 The electronic state is 1-A'.
 Alpha  occ. eigenvalues --  -20.57003  -1.34872  -0.74331  -0.55790  -0.50519
 Alpha virt. eigenvalues --    0.03620   0.05672   0.17548   0.19509   0.21717
 Alpha virt. eigenvalues --    0.22723   0.29502   0.31716   0.37757   0.43293
 Alpha virt. eigenvalues --    0.45638   0.52450   0.63870   0.66306   0.84323
 Alpha virt. eigenvalues --    0.89305   1.08275   1.08915   1.14862   1.40247
 Alpha virt. eigenvalues --    1.46745   1.49866   1.58768   1.97922   2.02935
 Alpha virt. eigenvalues --    2.09877   2.39863   2.46381   2.64326   2.78331
 Alpha virt. eigenvalues --    2.86144   3.65755   3.66799   3.71143   4.11246
 Alpha virt. eigenvalues --    4.30671
          Condensed to atoms (all electrons):
               1          2          3
     1  O    7.653141   0.359294   0.327965
     2  H    0.359294   0.579121  -0.048327
     3  H    0.327965  -0.048327   0.489873
 Mulliken charges:
               1
     1  O   -0.340400
     2  H    0.109912
     3  H    0.230489
 Sum of Mulliken charges =   0.00000
 Mulliken charges with hydrogens summed into heavy atoms:
               1
     1  O    0.000000
 Electronic spatial extent (au):  <R**2>=             19.5961
 Charge=              0.0000 electrons
 Dipole moment (field-independent basis, Debye):
    X=              0.0268    Y=             -1.7600    Z=              0.0000  Tot=              1.7602
 Quadrupole moment (field-independent basis, Debye-Ang):
   XX=             -3.7092   YY=             -6.6336   ZZ=             -7.6218
   XY=              0.3972   XZ=              0.0000   YZ=              0.0000
 Traceless Quadrupole moment (field-independent basis, Debye-Ang):
   XX=              2.2790   YY=             -0.6454   ZZ=             -1.6336
   XY=              0.3972   XZ=              0.0000   YZ=              0.0000
 Octapole moment (field-independent basis, Debye-Ang**2):
  XXX=              0.0985  YYY=             -0.9868  ZZZ=              0.0000  XYY=             -0.2160
  XXY=             -1.3695  XXZ=              0.0000  XZZ=              0.0607  YZZ=             -0.2550
  YYZ=              0.0000  XYZ=              0.0000
 Hexadecapole moment (field-independent basis, Debye-Ang**3):
 XXXX=             -5.5167 YYYY=             -7.3633 ZZZZ=             -6.9350 XXXY=              0.1235
 XXXZ=              0.0000 YYYX=             -0.0144 YYYZ=              0.0000 ZZZX=              0.0000
 ZZZY=              0.0000 XXYY=             -2.0262 XXZZ=             -2.5278 YYZZ=             -2.4177
 XXYZ=              0.0000 YYXZ=              0.0000 ZZXY=             -0.0716
 N-N= 9.173846818050D+00 E-N=-1.988797870949D+02  KE= 7.591830899498D+01
 Symmetry A'   KE= 7.148908256790D+01
 Symmetry A"   KE= 4.429226427081D+00
 No NMR shielding tensors so no spin-rotation constants.
 Leave Link  601 at Mon Feb 20 10:27:34 2023, MaxMem=   754974720 cpu:               0.4 elap:               0.1
 (Enter /opt/cluster/programs/g16-c.01/g16/l9999.exe)
 Unable to Open any file for archive entry.
 1\1\GINC-NODE86\SP\RHF\Aug-CC-pVDZ\H2O1\BOITTIER\20-Feb-2023\0\\#P HF/
 aug-cc-pVDZ scf(maxcycle=200)\\Gaussian input\\0,1\O,0,0.,0.11751,0.\H
 ,0,0.7183372325,-0.4395112028,0.\H,0,-0.9234862988,-0.2890045211,0.\\V
 ersion=ES64L-G16RevC.01\State=1-A'\HF=-76.0320494\RMSD=7.466e-09\Dipol
 e=-0.1338927,-0.6794634,0.\Quadrupole=1.7203838,-0.5058422,-1.2145416,
 -0.1731545,0.,0.\PG=CS [SG(H2O1)]\\@
 The archive entry for this job was punched.


 IF MATHEMATICALLY YOU END UP WITH THE INCORRECT ANSWER,
 TRY MULTIPLYING BY THE PAGE NUMBER.
 Job cpu time:       0 days  0 hours  0 minutes  3.3 seconds.
 Elapsed time:       0 days  0 hours  0 minutes  0.8 seconds.
 File lengths (MBytes):  RWF=      6 Int=      0 D2E=      0 Chk=      1 Scr=      1
 Normal termination of Gaussian 16 at Mon Feb 20 10:27:34 2023.
