 Entering Gaussian System, Link 0=/opt/cluster/programs/g16-c.01/g16/g16
 Input=/scratch/boittier/jobs/tmp.7311990/gaussian_162_water_hf_adz2.com
 Output=/scratch/boittier/jobs/tmp.7311990/gaussian_162_water_hf_adz2.out
 Initial command:
 /opt/cluster/programs/g16-c.01/g16/l1.exe "/scratch/boittier/jobs/tmp.7311990/Gau-182966.inp" -scrdir="/scratch/boittier/jobs/tmp.7311990/"
 Entering Link 1 = /opt/cluster/programs/g16-c.01/g16/l1.exe PID=    182970.
  
 Copyright (c) 1988-2019, Gaussian, Inc.  All Rights Reserved.
  
 This is part of the Gaussian(R) 16 program.  It is based on
 the Gaussian(R) 09 system (copyright 2009, Gaussian, Inc.),
 the Gaussian(R) 03 system (copyright 2003, Gaussian, Inc.),
 the Gaussian(R) 98 system (copyright 1998, Gaussian, Inc.),
 the Gaussian(R) 94 system (copyright 1995, Gaussian, Inc.),
 the Gaussian 92(TM) system (copyright 1992, Gaussian, Inc.),
 the Gaussian 90(TM) system (copyright 1990, Gaussian, Inc.),
 the Gaussian 88(TM) system (copyright 1988, Gaussian, Inc.),
 the Gaussian 86(TM) system (copyright 1986, Carnegie Mellon
 University), and the Gaussian 82(TM) system (copyright 1983,
 Carnegie Mellon University). Gaussian is a federally registered
 trademark of Gaussian, Inc.
  
 This software contains proprietary and confidential information,
 including trade secrets, belonging to Gaussian, Inc.
  
 This software is provided under written license and may be
 used, copied, transmitted, or stored only in accord with that
 written license.
  
 The following legend is applicable only to US Government
 contracts under FAR:
  
                    RESTRICTED RIGHTS LEGEND
  
 Use, reproduction and disclosure by the US Government is
 subject to restrictions as set forth in subparagraphs (a)
 and (c) of the Commercial Computer Software - Restricted
 Rights clause in FAR 52.227-19.
  
 Gaussian, Inc.
 340 Quinnipiac St., Bldg. 40, Wallingford CT 06492
  
  
 ---------------------------------------------------------------
 Warning -- This program may not be used in any manner that
 competes with the business of Gaussian, Inc. or will provide
 assistance to any competitor of Gaussian, Inc.  The licensee
 of this program is prohibited from giving any competitor of
 Gaussian, Inc. access to this program.  By using this program,
 the user acknowledges that Gaussian, Inc. is engaged in the
 business of creating and licensing software in the field of
 computational chemistry and represents and warrants to the
 licensee that it is not a competitor of Gaussian, Inc. and that
 it will not use this program in any manner prohibited above.
 ---------------------------------------------------------------
  

 Cite this work as:
 Gaussian 16, Revision C.01,
 M. J. Frisch, G. W. Trucks, H. B. Schlegel, G. E. Scuseria, 
 M. A. Robb, J. R. Cheeseman, G. Scalmani, V. Barone, 
 G. A. Petersson, H. Nakatsuji, X. Li, M. Caricato, A. V. Marenich, 
 J. Bloino, B. G. Janesko, R. Gomperts, B. Mennucci, H. P. Hratchian, 
 J. V. Ortiz, A. F. Izmaylov, J. L. Sonnenberg, D. Williams-Young, 
 F. Ding, F. Lipparini, F. Egidi, J. Goings, B. Peng, A. Petrone, 
 T. Henderson, D. Ranasinghe, V. G. Zakrzewski, J. Gao, N. Rega, 
 G. Zheng, W. Liang, M. Hada, M. Ehara, K. Toyota, R. Fukuda, 
 J. Hasegawa, M. Ishida, T. Nakajima, Y. Honda, O. Kitao, H. Nakai, 
 T. Vreven, K. Throssell, J. A. Montgomery, Jr., J. E. Peralta, 
 F. Ogliaro, M. J. Bearpark, J. J. Heyd, E. N. Brothers, K. N. Kudin, 
 V. N. Staroverov, T. A. Keith, R. Kobayashi, J. Normand, 
 K. Raghavachari, A. P. Rendell, J. C. Burant, S. S. Iyengar, 
 J. Tomasi, M. Cossi, J. M. Millam, M. Klene, C. Adamo, R. Cammi, 
 J. W. Ochterski, R. L. Martin, K. Morokuma, O. Farkas, 
 J. B. Foresman, and D. J. Fox, Gaussian, Inc., Wallingford CT, 2019.
 
 ******************************************
 Gaussian 16:  ES64L-G16RevC.01  3-Jul-2019
                20-Feb-2023 
 ******************************************
 %nproc=4
 Will use up to    4 processors via shared memory.
 %mem=5760MB
 %chk=gaussian_162_water_hf_adz2.chk
 -----------------------------------
 #P HF/aug-cc-pVDZ scf(maxcycle=200)
 -----------------------------------
 1/38=1,172=1/1;
 2/12=2,17=6,18=5,40=1/2;
 3/5=16,7=10,11=9,25=1,30=1/1,2,3;
 4//1;
 5/5=2,7=200,38=5/2;
 6/7=2,8=2,9=2,10=2,28=1/1;
 99/5=1,9=1/99;
 Leave Link    1 at Mon Feb 20 10:17:17 2023, MaxMem=   754974720 cpu:               0.2 elap:               0.1
 (Enter /opt/cluster/programs/g16-c.01/g16/l101.exe)
 --------------
 Gaussian input
 --------------
 Symbolic Z-matrix:
 Charge =  0 Multiplicity = 1
 O                     0.        0.11751   0. 
 H                     0.79736  -0.50079   0. 
 H                    -0.59651  -0.69629   0. 
 
 ITRead=  0  0  0
 MicOpt= -1 -1 -1
 NAtoms=      3 NQM=        3 NQMF=       0 NMMI=      0 NMMIF=      0
                NMic=       0 NMicF=      0.
                    Isotopes and Nuclear Properties:
 (Nuclear quadrupole moments (NQMom) in fm**2, nuclear magnetic moments (NMagM)
  in nuclear magnetons)

  Atom         1           2           3
 IAtWgt=          16           1           1
 AtmWgt=  15.9949146   1.0078250   1.0078250
 NucSpn=           0           1           1
 AtZEff=  -0.0000000  -0.0000000  -0.0000000
 NQMom=    0.0000000   0.0000000   0.0000000
 NMagM=    0.0000000   2.7928460   2.7928460
 AtZNuc=   8.0000000   1.0000000   1.0000000
 Leave Link  101 at Mon Feb 20 10:17:17 2023, MaxMem=   754974720 cpu:               1.2 elap:               0.4
 (Enter /opt/cluster/programs/g16-c.01/g16/l202.exe)
                          Input orientation:                          
 ---------------------------------------------------------------------
 Center     Atomic      Atomic             Coordinates (Angstroms)
 Number     Number       Type             X           Y           Z
 ---------------------------------------------------------------------
      1          8           0        0.000000    0.117510    0.000000
      2          1           0        0.797362   -0.500790    0.000000
      3          1           0       -0.596505   -0.696285    0.000000
 ---------------------------------------------------------------------
                    Distance matrix (angstroms):
                    1          2          3
     1  O    0.000000
     2  H    1.009000   0.000000
     3  H    1.009000   1.407510   0.000000
 Stoichiometry    H2O
 Framework group  C2V[C2(O),SGV(H2)]
 Deg. of freedom     2
 Full point group                 C2V     NOp   4
 Largest Abelian subgroup         C2V     NOp   4
 Largest concise Abelian subgroup C2      NOp   2
                         Standard orientation:                         
 ---------------------------------------------------------------------
 Center     Atomic      Atomic             Coordinates (Angstroms)
 Number     Number       Type             X           Y           Z
 ---------------------------------------------------------------------
      1          8           0        0.000000   -0.000000    0.144611
      2          1           0       -0.000000    0.703755   -0.578445
      3          1           0       -0.000000   -0.703755   -0.578445
 ---------------------------------------------------------------------
 Rotational constants (GHZ):         540.0125275         506.2428365         261.2913473
 Leave Link  202 at Mon Feb 20 10:17:17 2023, MaxMem=   754974720 cpu:               0.2 elap:               0.1
 (Enter /opt/cluster/programs/g16-c.01/g16/l301.exe)
 Standard basis: Aug-CC-pVDZ (5D, 7F)
 Ernie: Thresh=  0.10000D-02 Tol=  0.10000D-05 Strict=F.
 Ernie:  2 primitive shells out of 39 were deleted.
 There are    20 symmetry adapted cartesian basis functions of A1  symmetry.
 There are     4 symmetry adapted cartesian basis functions of A2  symmetry.
 There are     7 symmetry adapted cartesian basis functions of B1  symmetry.
 There are    12 symmetry adapted cartesian basis functions of B2  symmetry.
 There are    18 symmetry adapted basis functions of A1  symmetry.
 There are     4 symmetry adapted basis functions of A2  symmetry.
 There are     7 symmetry adapted basis functions of B1  symmetry.
 There are    12 symmetry adapted basis functions of B2  symmetry.
    41 basis functions,    65 primitive gaussians,    43 cartesian basis functions
     5 alpha electrons        5 beta electrons
       nuclear repulsion energy         8.7672804015 Hartrees.
 IExCor=    0 DFT=F Ex=HF Corr=None ExCW=0 ScaHFX=  1.000000
 ScaDFX=  1.000000  1.000000  1.000000  1.000000 ScalE2=  1.000000  1.000000
 IRadAn=      5 IRanWt=     -1 IRanGd=            0 ICorTp=0 IEmpDi=  4
 NAtoms=    3 NActive=    3 NUniq=    2 SFac= 2.25D+00 NAtFMM=   60 NAOKFM=F Big=F
 Integral buffers will be    131072 words long.
 Raffenetti 1 integral format.
 Two-electron integral symmetry is turned on.
 Leave Link  301 at Mon Feb 20 10:17:17 2023, MaxMem=   754974720 cpu:               0.2 elap:               0.0
 (Enter /opt/cluster/programs/g16-c.01/g16/l302.exe)
 NPDir=0 NMtPBC=     1 NCelOv=     1 NCel=       1 NClECP=     1 NCelD=      1
         NCelK=      1 NCelE2=     1 NClLst=     1 CellRange=     0.0.
 One-electron integrals computed using PRISM.
 One-electron integral symmetry used in STVInt
 NBasis=    41 RedAO= T EigKep=  2.37D-03  NBF=    18     4     7    12
 NBsUse=    41 1.00D-06 EigRej= -1.00D+00 NBFU=    18     4     7    12
 Leave Link  302 at Mon Feb 20 10:17:18 2023, MaxMem=   754974720 cpu:               0.4 elap:               0.1
 (Enter /opt/cluster/programs/g16-c.01/g16/l303.exe)
 DipDrv:  MaxL=1.
 Leave Link  303 at Mon Feb 20 10:17:18 2023, MaxMem=   754974720 cpu:               0.5 elap:               0.3
 (Enter /opt/cluster/programs/g16-c.01/g16/l401.exe)
 ExpMin= 2.97D-02 ExpMax= 1.17D+04 ExpMxC= 4.01D+02 IAcc=3 IRadAn=         5 AccDes= 0.00D+00
 Harris functional with IExCor=  205 and IRadAn=       5 diagonalized for initial guess.
 HarFok:  IExCor=  205 AccDes= 0.00D+00 IRadAn=         5 IDoV= 1 UseB2=F ITyADJ=14
 ICtDFT=  3500011 ScaDFX=  1.000000  1.000000  1.000000  1.000000
 FoFCou: FMM=F IPFlag=           0 FMFlag=      100000 FMFlg1=           0
         NFxFlg=           0 DoJE=T BraDBF=F KetDBF=T FulRan=T
         wScrn=  0.000000 ICntrl=       500 IOpCl=  0 I1Cent=   200000004 NGrid=           0
         NMat0=    1 NMatS0=      1 NMatT0=    0 NMatD0=    1 NMtDS0=    0 NMtDT0=    0
 Petite list used in FoFCou.
 Harris En= -76.1126596220577    
 JPrj=0 DoOrth=F DoCkMO=F.
 Initial guess orbital symmetries:
       Occupied  (A1) (A1) (B2) (A1) (B1)
       Virtual   (A1) (B2) (A1) (B1) (B2) (A1) (B2) (A1) (A1) (A2)
                 (B1) (B2) (A1) (B2) (B2) (A1) (B1) (A1) (A2) (A1)
                 (B1) (B2) (A1) (A2) (B2) (B1) (A1) (B2) (A1) (B2)
                 (A1) (B1) (A1) (A2) (A1) (B2)
 The electronic state of the initial guess is 1-A1.
 Leave Link  401 at Mon Feb 20 10:17:19 2023, MaxMem=   754974720 cpu:               1.7 elap:               0.8
 (Enter /opt/cluster/programs/g16-c.01/g16/l502.exe)
 Keep R1 ints in memory in symmetry-blocked form, NReq=1211474.
 FoFCou: FMM=F IPFlag=           0 FMFlag=           0 FMFlg1=           0
         NFxFlg=           0 DoJE=F BraDBF=F KetDBF=F FulRan=T
         wScrn=  0.000000 ICntrl=       600 IOpCl=  0 I1Cent=           0 NGrid=           0
         NMat0=    1 NMatS0=    861 NMatT0=    0 NMatD0=    1 NMtDS0=    0 NMtDT0=    0
 Petite list used in FoFCou.
 Closed shell SCF:
 Using DIIS extrapolation, IDIIS=  1040.
 NGot=   754974720 LenX=   754868251 LenY=   754865961
 Requested convergence on RMS density matrix=1.00D-08 within 200 cycles.
 Requested convergence on MAX density matrix=1.00D-06.
 Requested convergence on             energy=1.00D-06.
 No special actions if energy rises.

 Cycle   1  Pass 1  IDiag  1:
 E= -75.9558450249241    
 DIIS: error= 4.73D-02 at cycle   1 NSaved=   1.
 NSaved= 1 IEnMin= 1 EnMin= -75.9558450249241     IErMin= 1 ErrMin= 4.73D-02
 ErrMax= 4.73D-02  0.00D+00 EMaxC= 1.00D-01 BMatC= 1.07D-01 BMatP= 1.07D-01
 IDIUse=3 WtCom= 5.27D-01 WtEn= 4.73D-01
 Coeff-Com:  0.100D+01
 Coeff-En:   0.100D+01
 Coeff:      0.100D+01
 Gap=     0.464 Goal=   None    Shift=    0.000
 GapD=    0.464 DampG=2.000 DampE=0.500 DampFc=1.0000 IDamp=-1.
 RMSDP=6.07D-03 MaxDP=1.11D-01              OVMax= 1.25D-01

 Cycle   2  Pass 1  IDiag  1:
 E= -75.9936320787756     Delta-E=       -0.037787053852 Rises=F Damp=F
 DIIS: error= 4.13D-02 at cycle   2 NSaved=   2.
 NSaved= 2 IEnMin= 2 EnMin= -75.9936320787756     IErMin= 2 ErrMin= 4.13D-02
 ErrMax= 4.13D-02  0.00D+00 EMaxC= 1.00D-01 BMatC= 4.64D-02 BMatP= 1.07D-01
 IDIUse=3 WtCom= 5.87D-01 WtEn= 4.13D-01
 Coeff-Com:  0.387D+00 0.613D+00
 Coeff-En:   0.256D+00 0.744D+00
 Coeff:      0.333D+00 0.667D+00
 Gap=     0.557 Goal=   None    Shift=    0.000
 RMSDP=3.01D-03 MaxDP=5.41D-02 DE=-3.78D-02 OVMax= 5.94D-02

 Cycle   3  Pass 1  IDiag  1:
 E= -76.0263993359426     Delta-E=       -0.032767257167 Rises=F Damp=F
 DIIS: error= 4.20D-03 at cycle   3 NSaved=   3.
 NSaved= 3 IEnMin= 3 EnMin= -76.0263993359426     IErMin= 3 ErrMin= 4.20D-03
 ErrMax= 4.20D-03  0.00D+00 EMaxC= 1.00D-01 BMatC= 1.04D-03 BMatP= 4.64D-02
 IDIUse=3 WtCom= 9.58D-01 WtEn= 4.20D-02
 Coeff-Com: -0.403D-01 0.835D-01 0.957D+00
 Coeff-En:   0.000D+00 0.000D+00 0.100D+01
 Coeff:     -0.386D-01 0.800D-01 0.959D+00
 Gap=     0.541 Goal=   None    Shift=    0.000
 RMSDP=4.54D-04 MaxDP=8.42D-03 DE=-3.28D-02 OVMax= 9.87D-03

 Cycle   4  Pass 1  IDiag  1:
 E= -76.0272343006236     Delta-E=       -0.000834964681 Rises=F Damp=F
 DIIS: error= 8.43D-04 at cycle   4 NSaved=   4.
 NSaved= 4 IEnMin= 4 EnMin= -76.0272343006236     IErMin= 4 ErrMin= 8.43D-04
 ErrMax= 8.43D-04  0.00D+00 EMaxC= 1.00D-01 BMatC= 9.52D-06 BMatP= 1.04D-03
 IDIUse=3 WtCom= 9.92D-01 WtEn= 8.43D-03
 Coeff-Com:  0.980D-02-0.422D-01-0.349D+00 0.138D+01
 Coeff-En:   0.000D+00 0.000D+00 0.000D+00 0.100D+01
 Coeff:      0.971D-02-0.418D-01-0.346D+00 0.138D+01
 Gap=     0.542 Goal=   None    Shift=    0.000
 RMSDP=1.24D-04 MaxDP=1.62D-03 DE=-8.35D-04 OVMax= 2.46D-03

 Cycle   5  Pass 1  IDiag  1:
 E= -76.0272586862906     Delta-E=       -0.000024385667 Rises=F Damp=F
 DIIS: error= 2.27D-04 at cycle   5 NSaved=   5.
 NSaved= 5 IEnMin= 5 EnMin= -76.0272586862906     IErMin= 5 ErrMin= 2.27D-04
 ErrMax= 2.27D-04  0.00D+00 EMaxC= 1.00D-01 BMatC= 4.31D-07 BMatP= 9.52D-06
 IDIUse=3 WtCom= 9.98D-01 WtEn= 2.27D-03
 Coeff-Com: -0.209D-03 0.405D-02 0.307D-01-0.296D+00 0.126D+01
 Coeff-En:   0.000D+00 0.000D+00 0.000D+00 0.000D+00 0.100D+01
 Coeff:     -0.209D-03 0.405D-02 0.306D-01-0.296D+00 0.126D+01
 Gap=     0.543 Goal=   None    Shift=    0.000
 RMSDP=2.86D-05 MaxDP=5.07D-04 DE=-2.44D-05 OVMax= 7.04D-04

 Cycle   6  Pass 1  IDiag  1:
 E= -76.0272599825493     Delta-E=       -0.000001296259 Rises=F Damp=F
 DIIS: error= 4.17D-05 at cycle   6 NSaved=   6.
 NSaved= 6 IEnMin= 6 EnMin= -76.0272599825493     IErMin= 6 ErrMin= 4.17D-05
 ErrMax= 4.17D-05  0.00D+00 EMaxC= 1.00D-01 BMatC= 1.71D-08 BMatP= 4.31D-07
 IDIUse=1 WtCom= 1.00D+00 WtEn= 0.00D+00
 Coeff-Com: -0.430D-03 0.144D-02 0.120D-01-0.222D-01-0.230D+00 0.124D+01
 Coeff:     -0.430D-03 0.144D-02 0.120D-01-0.222D-01-0.230D+00 0.124D+01
 Gap=     0.543 Goal=   None    Shift=    0.000
 RMSDP=5.26D-06 MaxDP=1.18D-04 DE=-1.30D-06 OVMax= 1.59D-04

 Cycle   7  Pass 1  IDiag  1:
 E= -76.0272600337877     Delta-E=       -0.000000051238 Rises=F Damp=F
 DIIS: error= 5.51D-06 at cycle   7 NSaved=   7.
 NSaved= 7 IEnMin= 7 EnMin= -76.0272600337877     IErMin= 7 ErrMin= 5.51D-06
 ErrMax= 5.51D-06  0.00D+00 EMaxC= 1.00D-01 BMatC= 5.84D-10 BMatP= 1.71D-08
 IDIUse=1 WtCom= 1.00D+00 WtEn= 0.00D+00
 Coeff-Com:  0.133D-03-0.588D-03-0.512D-02 0.218D-01 0.345D-02-0.301D+00
 Coeff-Com:  0.128D+01
 Coeff:      0.133D-03-0.588D-03-0.512D-02 0.218D-01 0.345D-02-0.301D+00
 Coeff:      0.128D+01
 Gap=     0.543 Goal=   None    Shift=    0.000
 RMSDP=8.83D-07 MaxDP=1.23D-05 DE=-5.12D-08 OVMax= 2.24D-05

 Cycle   8  Pass 1  IDiag  1:
 E= -76.0272600350761     Delta-E=       -0.000000001288 Rises=F Damp=F
 DIIS: error= 6.90D-07 at cycle   8 NSaved=   8.
 NSaved= 8 IEnMin= 8 EnMin= -76.0272600350761     IErMin= 8 ErrMin= 6.90D-07
 ErrMax= 6.90D-07  0.00D+00 EMaxC= 1.00D-01 BMatC= 1.25D-11 BMatP= 5.84D-10
 IDIUse=1 WtCom= 1.00D+00 WtEn= 0.00D+00
 Coeff-Com: -0.275D-04 0.132D-03 0.120D-02-0.595D-02 0.436D-02 0.611D-01
 Coeff-Com: -0.397D+00 0.134D+01
 Coeff:     -0.275D-04 0.132D-03 0.120D-02-0.595D-02 0.436D-02 0.611D-01
 Coeff:     -0.397D+00 0.134D+01
 Gap=     0.543 Goal=   None    Shift=    0.000
 RMSDP=1.89D-07 MaxDP=2.58D-06 DE=-1.29D-09 OVMax= 3.47D-06

 Cycle   9  Pass 1  IDiag  1:
 E= -76.0272600351098     Delta-E=       -0.000000000034 Rises=F Damp=F
 DIIS: error= 1.14D-07 at cycle   9 NSaved=   9.
 NSaved= 9 IEnMin= 9 EnMin= -76.0272600351098     IErMin= 9 ErrMin= 1.14D-07
 ErrMax= 1.14D-07  0.00D+00 EMaxC= 1.00D-01 BMatC= 4.46D-13 BMatP= 1.25D-11
 IDIUse=1 WtCom= 1.00D+00 WtEn= 0.00D+00
 Coeff-Com:  0.524D-05-0.256D-04-0.256D-03 0.140D-02-0.148D-02-0.127D-01
 Coeff-Com:  0.103D+00-0.462D+00 0.137D+01
 Coeff:      0.524D-05-0.256D-04-0.256D-03 0.140D-02-0.148D-02-0.127D-01
 Coeff:      0.103D+00-0.462D+00 0.137D+01
 Gap=     0.543 Goal=   None    Shift=    0.000
 RMSDP=3.12D-08 MaxDP=4.10D-07 DE=-3.37D-11 OVMax= 6.14D-07

 Cycle  10  Pass 1  IDiag  1:
 E= -76.0272600351109     Delta-E=       -0.000000000001 Rises=F Damp=F
 DIIS: error= 2.79D-08 at cycle  10 NSaved=  10.
 NSaved=10 IEnMin=10 EnMin= -76.0272600351109     IErMin=10 ErrMin= 2.79D-08
 ErrMax= 2.79D-08  0.00D+00 EMaxC= 1.00D-01 BMatC= 2.25D-14 BMatP= 4.46D-13
 IDIUse=1 WtCom= 1.00D+00 WtEn= 0.00D+00
 Coeff-Com: -0.629D-06 0.315D-05 0.413D-04-0.284D-03 0.492D-03 0.179D-02
 Coeff-Com: -0.219D-01 0.119D+00-0.551D+00 0.145D+01
 Coeff:     -0.629D-06 0.315D-05 0.413D-04-0.284D-03 0.492D-03 0.179D-02
 Coeff:     -0.219D-01 0.119D+00-0.551D+00 0.145D+01
 Gap=     0.543 Goal=   None    Shift=    0.000
 RMSDP=8.23D-09 MaxDP=9.04D-08 DE=-1.08D-12 OVMax= 2.04D-07

 SCF Done:  E(RHF) =  -76.0272600351     A.U. after   10 cycles
            NFock= 10  Conv=0.82D-08     -V/T= 2.0035
 KE= 7.576290401806D+01 PE=-1.979255253782D+02 EE= 3.736808092344D+01
 Leave Link  502 at Mon Feb 20 10:17:22 2023, MaxMem=   754974720 cpu:               6.9 elap:               3.4
 (Enter /opt/cluster/programs/g16-c.01/g16/l601.exe)
 Copying SCF densities to generalized density rwf, IOpCl= 0 IROHF=0.

 **********************************************************************

            Population analysis using the SCF Density.

 **********************************************************************

 Orbital symmetries:
       Occupied  (A1) (A1) (B2) (A1) (B1)
       Virtual   (A1) (B2) (A1) (B1) (A1) (B2) (B2) (A1) (A1) (A2)
                 (B1) (B2) (A1) (B2) (B2) (A1) (B1) (A1) (A2) (A1)
                 (B2) (B1) (A1) (A2) (B2) (B1) (A1) (B2) (A1) (B2)
                 (A1) (B1) (A1) (A2) (A1) (B2)
 The electronic state is 1-A1.
 Alpha  occ. eigenvalues --  -20.59249  -1.34284  -0.66059  -0.60712  -0.51018
 Alpha virt. eigenvalues --    0.03289   0.05907   0.17254   0.20077   0.21975
 Alpha virt. eigenvalues --    0.23791   0.26790   0.35107   0.36819   0.39184
 Alpha virt. eigenvalues --    0.40401   0.54717   0.62878   0.65515   0.75906
 Alpha virt. eigenvalues --    0.94877   1.11692   1.12074   1.14260   1.26453
 Alpha virt. eigenvalues --    1.42378   1.44789   1.58832   1.96023   2.00551
 Alpha virt. eigenvalues --    2.10727   2.12834   2.42679   2.53562   2.65005
 Alpha virt. eigenvalues --    3.07189   3.67599   3.67864   3.68585   3.94592
 Alpha virt. eigenvalues --    4.19922
          Condensed to atoms (all electrons):
               1          2          3
     1  O    7.781214   0.304939   0.304939
     2  H    0.304939   0.498695   0.000821
     3  H    0.304939   0.000821   0.498695
 Mulliken charges:
               1
     1  O   -0.391091
     2  H    0.195546
     3  H    0.195546
 Sum of Mulliken charges =   0.00000
 Mulliken charges with hydrogens summed into heavy atoms:
               1
     1  O    0.000000
 Electronic spatial extent (au):  <R**2>=             20.1854
 Charge=              0.0000 electrons
 Dipole moment (field-independent basis, Debye):
    X=             -0.0000    Y=              0.0000    Z=             -2.2895  Tot=              2.2895
 Quadrupole moment (field-independent basis, Debye-Ang):
   XX=             -7.6811   YY=             -4.9321   ZZ=             -5.7612
   XY=              0.0000   XZ=              0.0000   YZ=              0.0000
 Traceless Quadrupole moment (field-independent basis, Debye-Ang):
   XX=             -1.5563   YY=              1.1927   ZZ=              0.3636
   XY=              0.0000   XZ=              0.0000   YZ=              0.0000
 Octapole moment (field-independent basis, Debye-Ang**2):
  XXX=              0.0000  YYY=              0.0000  ZZZ=             -1.5017  XYY=             -0.0000
  XXY=              0.0000  XXZ=             -0.2896  XZZ=             -0.0000  YZZ=              0.0000
  YYZ=             -1.4107  XYZ=             -0.0000
 Hexadecapole moment (field-independent basis, Debye-Ang**3):
 XXXX=             -6.8775 YYYY=             -6.8715 ZZZZ=             -7.7740 XXXY=             -0.0000
 XXXZ=             -0.0000 YYYX=             -0.0000 YYYZ=             -0.0000 ZZZX=             -0.0000
 ZZZY=              0.0000 XXYY=             -2.5094 XXZZ=             -2.5523 YYZZ=             -1.8739
 XXYZ=              0.0000 YYXZ=              0.0000 ZZXY=              0.0000
 N-N= 8.767280401545D+00 E-N=-1.979255257003D+02  KE= 7.576290401806D+01
 Symmetry A1   KE= 6.776490948089D+01
 Symmetry A2   KE= 1.009367134445D-33
 Symmetry B1   KE= 4.468097870249D+00
 Symmetry B2   KE= 3.529896666919D+00
 No NMR shielding tensors so no spin-rotation constants.
 Leave Link  601 at Mon Feb 20 10:17:23 2023, MaxMem=   754974720 cpu:               1.5 elap:               0.8
 (Enter /opt/cluster/programs/g16-c.01/g16/l9999.exe)
 Unable to Open any file for archive entry.
 1\1\GINC-NODE105\SP\RHF\Aug-CC-pVDZ\H2O1\BOITTIER\20-Feb-2023\0\\#P HF
 /aug-cc-pVDZ scf(maxcycle=200)\\Gaussian input\\0,1\O,0,0.,0.11751,0.\
 H,0,0.7973622306,-0.5007896629,0.\H,0,-0.5965053343,-0.6962850517,0.\\
 Version=ES64L-G16RevC.01\State=1-A1\HF=-76.02726\RMSD=8.233e-09\Dipole
 =0.125111,-0.8920323,0.\Quadrupole=0.8748337,0.2822275,-1.1570613,0.08
 47831,0.,0.\PG=C02V [C2(O1),SGV(H2)]\\@
 The archive entry for this job was punched.


 "MATHEMATICS IS THE ART OF GIVING THE SAME NAME
 TO DIFFERENT THINGS."
                    - H. POINCARE
 Job cpu time:       0 days  0 hours  0 minutes 13.2 seconds.
 Elapsed time:       0 days  0 hours  0 minutes  6.3 seconds.
 File lengths (MBytes):  RWF=      6 Int=      0 D2E=      0 Chk=      1 Scr=      1
 Normal termination of Gaussian 16 at Mon Feb 20 10:17:23 2023.
