 Entering Gaussian System, Link 0=/opt/cluster/programs/g16-c.01/g16/g16
 Input=/scratch/boittier/jobs/tmp.7261956/gaussian_18_water_wb97_ptz.com
 Output=/scratch/boittier/jobs/tmp.7261956/gaussian_18_water_wb97_ptz.out
 Initial command:
 /opt/cluster/programs/g16-c.01/g16/l1.exe "/scratch/boittier/jobs/tmp.7261956/Gau-172900.inp" -scrdir="/scratch/boittier/jobs/tmp.7261956/"
 Entering Link 1 = /opt/cluster/programs/g16-c.01/g16/l1.exe PID=    172901.
  
 Copyright (c) 1988-2019, Gaussian, Inc.  All Rights Reserved.
  
 This is part of the Gaussian(R) 16 program.  It is based on
 the Gaussian(R) 09 system (copyright 2009, Gaussian, Inc.),
 the Gaussian(R) 03 system (copyright 2003, Gaussian, Inc.),
 the Gaussian(R) 98 system (copyright 1998, Gaussian, Inc.),
 the Gaussian(R) 94 system (copyright 1995, Gaussian, Inc.),
 the Gaussian 92(TM) system (copyright 1992, Gaussian, Inc.),
 the Gaussian 90(TM) system (copyright 1990, Gaussian, Inc.),
 the Gaussian 88(TM) system (copyright 1988, Gaussian, Inc.),
 the Gaussian 86(TM) system (copyright 1986, Carnegie Mellon
 University), and the Gaussian 82(TM) system (copyright 1983,
 Carnegie Mellon University). Gaussian is a federally registered
 trademark of Gaussian, Inc.
  
 This software contains proprietary and confidential information,
 including trade secrets, belonging to Gaussian, Inc.
  
 This software is provided under written license and may be
 used, copied, transmitted, or stored only in accord with that
 written license.
  
 The following legend is applicable only to US Government
 contracts under FAR:
  
                    RESTRICTED RIGHTS LEGEND
  
 Use, reproduction and disclosure by the US Government is
 subject to restrictions as set forth in subparagraphs (a)
 and (c) of the Commercial Computer Software - Restricted
 Rights clause in FAR 52.227-19.
  
 Gaussian, Inc.
 340 Quinnipiac St., Bldg. 40, Wallingford CT 06492
  
  
 ---------------------------------------------------------------
 Warning -- This program may not be used in any manner that
 competes with the business of Gaussian, Inc. or will provide
 assistance to any competitor of Gaussian, Inc.  The licensee
 of this program is prohibited from giving any competitor of
 Gaussian, Inc. access to this program.  By using this program,
 the user acknowledges that Gaussian, Inc. is engaged in the
 business of creating and licensing software in the field of
 computational chemistry and represents and warrants to the
 licensee that it is not a competitor of Gaussian, Inc. and that
 it will not use this program in any manner prohibited above.
 ---------------------------------------------------------------
  

 Cite this work as:
 Gaussian 16, Revision C.01,
 M. J. Frisch, G. W. Trucks, H. B. Schlegel, G. E. Scuseria, 
 M. A. Robb, J. R. Cheeseman, G. Scalmani, V. Barone, 
 G. A. Petersson, H. Nakatsuji, X. Li, M. Caricato, A. V. Marenich, 
 J. Bloino, B. G. Janesko, R. Gomperts, B. Mennucci, H. P. Hratchian, 
 J. V. Ortiz, A. F. Izmaylov, J. L. Sonnenberg, D. Williams-Young, 
 F. Ding, F. Lipparini, F. Egidi, J. Goings, B. Peng, A. Petrone, 
 T. Henderson, D. Ranasinghe, V. G. Zakrzewski, J. Gao, N. Rega, 
 G. Zheng, W. Liang, M. Hada, M. Ehara, K. Toyota, R. Fukuda, 
 J. Hasegawa, M. Ishida, T. Nakajima, Y. Honda, O. Kitao, H. Nakai, 
 T. Vreven, K. Throssell, J. A. Montgomery, Jr., J. E. Peralta, 
 F. Ogliaro, M. J. Bearpark, J. J. Heyd, E. N. Brothers, K. N. Kudin, 
 V. N. Staroverov, T. A. Keith, R. Kobayashi, J. Normand, 
 K. Raghavachari, A. P. Rendell, J. C. Burant, S. S. Iyengar, 
 J. Tomasi, M. Cossi, J. M. Millam, M. Klene, C. Adamo, R. Cammi, 
 J. W. Ochterski, R. L. Martin, K. Morokuma, O. Farkas, 
 J. B. Foresman, and D. J. Fox, Gaussian, Inc., Wallingford CT, 2019.
 
 ******************************************
 Gaussian 16:  ES64L-G16RevC.01  3-Jul-2019
                 8-Feb-2023 
 ******************************************
 %nproc=4
 Will use up to    4 processors via shared memory.
 %mem=5760MB
 %chk=gaussian_18_water_wb97_ptz.chk
 ------------------------------------
 #P wB97XD/6-311g** scf(maxcycle=200)
 ------------------------------------
 1/38=1,172=1/1;
 2/12=2,17=6,18=5,40=1/2;
 3/5=4,6=6,7=101,11=2,25=1,30=1,74=-58/1,2,3;
 4//1;
 5/5=2,7=200,38=5/2;
 6/7=2,8=2,9=2,10=2,28=1/1;
 99/5=1,9=1/99;
 Leave Link    1 at Wed Feb  8 14:40:14 2023, MaxMem=   754974720 cpu:               0.2 elap:               0.1
 (Enter /opt/cluster/programs/g16-c.01/g16/l101.exe)
 --------------
 Gaussian input
 --------------
 Symbolic Z-matrix:
 Charge =  0 Multiplicity = 1
 O                     0.        0.11751   0. 
 H                     0.71834  -0.43951   0. 
 H                    -0.84424  -0.21946   0. 
 
 ITRead=  0  0  0
 MicOpt= -1 -1 -1
 NAtoms=      3 NQM=        3 NQMF=       0 NMMI=      0 NMMIF=      0
                NMic=       0 NMicF=      0.
                    Isotopes and Nuclear Properties:
 (Nuclear quadrupole moments (NQMom) in fm**2, nuclear magnetic moments (NMagM)
  in nuclear magnetons)

  Atom         1           2           3
 IAtWgt=          16           1           1
 AtmWgt=  15.9949146   1.0078250   1.0078250
 NucSpn=           0           1           1
 AtZEff=  -0.0000000  -0.0000000  -0.0000000
 NQMom=    0.0000000   0.0000000   0.0000000
 NMagM=    0.0000000   2.7928460   2.7928460
 AtZNuc=   8.0000000   1.0000000   1.0000000
 Leave Link  101 at Wed Feb  8 14:40:14 2023, MaxMem=   754974720 cpu:               0.5 elap:               0.2
 (Enter /opt/cluster/programs/g16-c.01/g16/l202.exe)
                          Input orientation:                          
 ---------------------------------------------------------------------
 Center     Atomic      Atomic             Coordinates (Angstroms)
 Number     Number       Type             X           Y           Z
 ---------------------------------------------------------------------
      1          8           0        0.000000    0.117510    0.000000
      2          1           0        0.718337   -0.439511    0.000000
      3          1           0       -0.844236   -0.219458    0.000000
 ---------------------------------------------------------------------
                    Distance matrix (angstroms):
                    1          2          3
     1  O    0.000000
     2  H    0.909000   0.000000
     3  H    0.909000   1.577992   0.000000
 Stoichiometry    H2O
 Framework group  C2V[C2(O),SGV(H2)]
 Deg. of freedom     2
 Full point group                 C2V     NOp   4
 Largest Abelian subgroup         C2V     NOp   4
 Largest concise Abelian subgroup C2      NOp   2
                         Standard orientation:                         
 ---------------------------------------------------------------------
 Center     Atomic      Atomic             Coordinates (Angstroms)
 Number     Number       Type             X           Y           Z
 ---------------------------------------------------------------------
      1          8           0        0.000000    0.000000    0.090281
      2          1           0        0.000000    0.788996   -0.361124
      3          1           0       -0.000000   -0.788996   -0.361124
 ---------------------------------------------------------------------
 Rotational constants (GHZ):        1385.5255016         402.7658496         312.0533773
 Leave Link  202 at Wed Feb  8 14:40:14 2023, MaxMem=   754974720 cpu:               0.0 elap:               0.0
 (Enter /opt/cluster/programs/g16-c.01/g16/l301.exe)
 Standard basis: 6-311G(d,p) (5D, 7F)
 Ernie: Thresh=  0.10000D-02 Tol=  0.10000D-05 Strict=F.
 There are    15 symmetry adapted cartesian basis functions of A1  symmetry.
 There are     2 symmetry adapted cartesian basis functions of A2  symmetry.
 There are     5 symmetry adapted cartesian basis functions of B1  symmetry.
 There are     9 symmetry adapted cartesian basis functions of B2  symmetry.
 There are    14 symmetry adapted basis functions of A1  symmetry.
 There are     2 symmetry adapted basis functions of A2  symmetry.
 There are     5 symmetry adapted basis functions of B1  symmetry.
 There are     9 symmetry adapted basis functions of B2  symmetry.
    30 basis functions,    48 primitive gaussians,    31 cartesian basis functions
     5 alpha electrons        5 beta electrons
       nuclear repulsion energy         9.6497989025 Hartrees.
 IExCor= 4639 DFT=T Ex+Corr=wB97XD ExCW=0 ScaHFX=  1.000000
 ScaDFX=  1.000000  1.000000  1.000000  1.000000 ScalE2=  1.000000  1.000000
 IRadAn=      5 IRanWt=     -1 IRanGd=            0 ICorTp=0 IEmpDi=121
 HFx  wShort=  0.000000 wLong=  0.200000 cFull=  0.222036 cShort=  0.000000 cLong=  0.777964
 DFx  wShort=  0.000000 wLong=  0.200000 cFull=  0.000000 cShort=  0.000000 cLong=  1.000000
 NAtoms=    3 NActive=    3 NUniq=    2 SFac= 2.25D+00 NAtFMM=   60 NAOKFM=F Big=F
 Integral buffers will be    131072 words long.
 Raffenetti 2 integral format.
 Two-electron integral symmetry is turned on.
 R6Disp:  Grimme-D2 Dispersion energy=       -0.0000336047 Hartrees.
 Nuclear repulsion after empirical dispersion term =        9.6497652978 Hartrees.
 Leave Link  301 at Wed Feb  8 14:40:14 2023, MaxMem=   754974720 cpu:               0.1 elap:               0.0
 (Enter /opt/cluster/programs/g16-c.01/g16/l302.exe)
 NPDir=0 NMtPBC=     1 NCelOv=     1 NCel=       1 NClECP=     1 NCelD=      1
         NCelK=      1 NCelE2=     1 NClLst=     1 CellRange=     0.0.
 One-electron integrals computed using PRISM.
 One-electron integral symmetry used in STVInt
 NBasis=    30 RedAO= T EigKep=  1.78D-02  NBF=    14     2     5     9
 NBsUse=    30 1.00D-06 EigRej= -1.00D+00 NBFU=    14     2     5     9
 Precomputing XC quadrature grid using
 IXCGrd= 4 IRadAn=           5 IRanWt=          -1 IRanGd=           0 AccXCQ= 0.00D+00.
 Generated NRdTot=       0 NPtTot=           0 NUsed=           0 NTot=          32
 NSgBfM=    31    31    31    31    31 MxSgAt=     3 MxSgA2=     3.
 Leave Link  302 at Wed Feb  8 14:40:14 2023, MaxMem=   754974720 cpu:               1.1 elap:               0.6
 (Enter /opt/cluster/programs/g16-c.01/g16/l303.exe)
 DipDrv:  MaxL=1.
 Leave Link  303 at Wed Feb  8 14:40:15 2023, MaxMem=   754974720 cpu:               0.2 elap:               0.1
 (Enter /opt/cluster/programs/g16-c.01/g16/l401.exe)
 ExpMin= 1.03D-01 ExpMax= 8.59D+03 ExpMxC= 1.30D+03 IAcc=3 IRadAn=         5 AccDes= 0.00D+00
 Harris functional with IExCor= 4639 and IRadAn=       5 diagonalized for initial guess.
 HarFok:  IExCor= 4639 AccDes= 0.00D+00 IRadAn=         5 IDoV= 1 UseB2=F ITyADJ=14
 ICtDFT=  3500011 ScaDFX=  1.000000  1.000000  1.000000  1.000000
 FoFCou: FMM=F IPFlag=           0 FMFlag=      100000 FMFlg1=           0
         NFxFlg=           0 DoJE=T BraDBF=F KetDBF=T FulRan=T
         wScrn=  0.000000 ICntrl=       500 IOpCl=  0 I1Cent=   200000004 NGrid=           0
         NMat0=    1 NMatS0=      1 NMatT0=    0 NMatD0=    1 NMtDS0=    0 NMtDT0=    0
 Petite list used in FoFCou.
 Harris En= -73.5950363431706    
 JPrj=0 DoOrth=F DoCkMO=F.
 Initial guess orbital symmetries:
       Occupied  (A1) (A1) (B2) (A1) (B1)
       Virtual   (A1) (B2) (A1) (B2) (A1) (B1) (B2) (A1) (A2) (A1)
                 (B1) (B2) (A1) (B2) (A1) (B2) (B1) (A2) (A1) (B2)
                 (A1) (B1) (A1) (B2) (A1)
 The electronic state of the initial guess is 1-A1.
 Leave Link  401 at Wed Feb  8 14:40:15 2023, MaxMem=   754974720 cpu:               1.2 elap:               0.5
 (Enter /opt/cluster/programs/g16-c.01/g16/l502.exe)
 Keep R1 ints in memory in symmetry-blocked form, NReq=3688799.
 FoFCou: FMM=F IPFlag=           0 FMFlag=           0 FMFlg1=           0
         NFxFlg=           0 DoJE=F BraDBF=F KetDBF=F FulRan=T
         wScrn=  0.000000 ICntrl=       600 IOpCl=  0 I1Cent=           0 NGrid=           0
         NMat0=    1 NMatS0=    465 NMatT0=    0 NMatD0=    1 NMtDS0=    0 NMtDT0=    0
 Petite list used in FoFCou.
 Closed shell SCF:
 Using DIIS extrapolation, IDIIS=  1040.
 NGot=   754974720 LenX=   754939916 LenY=   754938514
 Requested convergence on RMS density matrix=1.00D-08 within 200 cycles.
 Requested convergence on MAX density matrix=1.00D-06.
 Requested convergence on             energy=1.00D-06.
 No special actions if energy rises.
 Integral accuracy reduced to 1.0D-05 until final iterations.

 Cycle   1  Pass 0  IDiag  1:
 E= -76.4043368829257    
 DIIS: error= 8.69D-02 at cycle   1 NSaved=   1.
 NSaved= 1 IEnMin= 1 EnMin= -76.4043368829257     IErMin= 1 ErrMin= 8.69D-02
 ErrMax= 8.69D-02  0.00D+00 EMaxC= 1.00D-01 BMatC= 1.27D-01 BMatP= 1.27D-01
 IDIUse=3 WtCom= 1.31D-01 WtEn= 8.69D-01
 Coeff-Com:  0.100D+01
 Coeff-En:   0.100D+01
 Coeff:      0.100D+01
 Gap=     0.497 Goal=   None    Shift=    0.000
 GapD=    0.497 DampG=2.000 DampE=0.500 DampFc=1.0000 IDamp=-1.
 RMSDP=2.10D-03 MaxDP=1.41D-02              OVMax= 3.63D-02

 Cycle   2  Pass 0  IDiag  1:
 E= -76.4125559304819     Delta-E=       -0.008219047556 Rises=F Damp=F
 DIIS: error= 9.33D-03 at cycle   2 NSaved=   2.
 NSaved= 2 IEnMin= 2 EnMin= -76.4125559304819     IErMin= 2 ErrMin= 9.33D-03
 ErrMax= 9.33D-03  0.00D+00 EMaxC= 1.00D-01 BMatC= 2.24D-03 BMatP= 1.27D-01
 IDIUse=3 WtCom= 9.07D-01 WtEn= 9.33D-02
 Coeff-Com:  0.504D-01 0.950D+00
 Coeff-En:   0.000D+00 0.100D+01
 Coeff:      0.457D-01 0.954D+00
 Gap=     0.534 Goal=   None    Shift=    0.000
 RMSDP=1.27D-03 MaxDP=1.73D-02 DE=-8.22D-03 OVMax= 1.59D-02

 Cycle   3  Pass 0  IDiag  1:
 E= -76.4128860762132     Delta-E=       -0.000330145731 Rises=F Damp=F
 DIIS: error= 8.93D-03 at cycle   3 NSaved=   3.
 NSaved= 3 IEnMin= 3 EnMin= -76.4128860762132     IErMin= 3 ErrMin= 8.93D-03
 ErrMax= 8.93D-03  0.00D+00 EMaxC= 1.00D-01 BMatC= 1.76D-03 BMatP= 2.24D-03
 IDIUse=3 WtCom= 9.11D-01 WtEn= 8.93D-02
 Coeff-Com:  0.200D-01 0.470D+00 0.510D+00
 Coeff-En:   0.000D+00 0.427D+00 0.573D+00
 Coeff:      0.182D-01 0.466D+00 0.516D+00
 Gap=     0.518 Goal=   None    Shift=    0.000
 RMSDP=5.90D-04 MaxDP=7.32D-03 DE=-3.30D-04 OVMax= 7.95D-03

 Cycle   4  Pass 0  IDiag  1:
 E= -76.4139097764087     Delta-E=       -0.001023700195 Rises=F Damp=F
 DIIS: error= 3.74D-04 at cycle   4 NSaved=   4.
 NSaved= 4 IEnMin= 4 EnMin= -76.4139097764087     IErMin= 4 ErrMin= 3.74D-04
 ErrMax= 3.74D-04  0.00D+00 EMaxC= 1.00D-01 BMatC= 2.47D-06 BMatP= 1.76D-03
 IDIUse=3 WtCom= 9.96D-01 WtEn= 3.74D-03
 Coeff-Com:  0.140D-02 0.411D-01 0.643D-01 0.893D+00
 Coeff-En:   0.000D+00 0.000D+00 0.000D+00 0.100D+01
 Coeff:      0.139D-02 0.409D-01 0.640D-01 0.894D+00
 Gap=     0.519 Goal=   None    Shift=    0.000
 RMSDP=4.56D-05 MaxDP=4.32D-04 DE=-1.02D-03 OVMax= 4.58D-04

 Cycle   5  Pass 0  IDiag  1:
 E= -76.4139116029512     Delta-E=       -0.000001826543 Rises=F Damp=F
 DIIS: error= 5.89D-05 at cycle   5 NSaved=   5.
 NSaved= 5 IEnMin= 5 EnMin= -76.4139116029512     IErMin= 5 ErrMin= 5.89D-05
 ErrMax= 5.89D-05  0.00D+00 EMaxC= 1.00D-01 BMatC= 5.54D-08 BMatP= 2.47D-06
 IDIUse=1 WtCom= 1.00D+00 WtEn= 0.00D+00
 Coeff-Com: -0.685D-03-0.183D-01-0.195D-01-0.475D-01 0.109D+01
 Coeff:     -0.685D-03-0.183D-01-0.195D-01-0.475D-01 0.109D+01
 Gap=     0.519 Goal=   None    Shift=    0.000
 RMSDP=1.99D-05 MaxDP=1.97D-04 DE=-1.83D-06 OVMax= 2.90D-04

 Cycle   6  Pass 0  IDiag  1:
 E= -76.4139117425163     Delta-E=       -0.000000139565 Rises=F Damp=F
 DIIS: error= 1.07D-05 at cycle   6 NSaved=   6.
 NSaved= 6 IEnMin= 6 EnMin= -76.4139117425163     IErMin= 6 ErrMin= 1.07D-05
 ErrMax= 1.07D-05  0.00D+00 EMaxC= 1.00D-01 BMatC= 3.27D-09 BMatP= 5.54D-08
 IDIUse=1 WtCom= 1.00D+00 WtEn= 0.00D+00
 Coeff-Com:  0.136D-03 0.318D-02 0.391D-02-0.154D-01-0.227D+00 0.123D+01
 Coeff:      0.136D-03 0.318D-02 0.391D-02-0.154D-01-0.227D+00 0.123D+01
 Gap=     0.519 Goal=   None    Shift=    0.000
 RMSDP=5.31D-06 MaxDP=5.96D-05 DE=-1.40D-07 OVMax= 7.87D-05

 Initial convergence to 1.0D-05 achieved.  Increase integral accuracy.
 Cycle   7  Pass 1  IDiag  1:
 E= -76.4139102964524     Delta-E=        0.000001446064 Rises=F Damp=F
 DIIS: error= 1.07D-05 at cycle   1 NSaved=   1.
 NSaved= 1 IEnMin= 1 EnMin= -76.4139102964524     IErMin= 1 ErrMin= 1.07D-05
 ErrMax= 1.07D-05  0.00D+00 EMaxC= 1.00D-01 BMatC= 4.07D-09 BMatP= 4.07D-09
 IDIUse=1 WtCom= 1.00D+00 WtEn= 0.00D+00
 Coeff-Com:  0.100D+01
 Coeff:      0.100D+01
 Gap=     0.519 Goal=   None    Shift=    0.000
 RMSDP=5.31D-06 MaxDP=5.96D-05 DE= 1.45D-06 OVMax= 1.72D-05

 Cycle   8  Pass 1  IDiag  1:
 E= -76.4139102995696     Delta-E=       -0.000000003117 Rises=F Damp=F
 DIIS: error= 1.96D-06 at cycle   2 NSaved=   2.
 NSaved= 2 IEnMin= 2 EnMin= -76.4139102995696     IErMin= 2 ErrMin= 1.96D-06
 ErrMax= 1.96D-06  0.00D+00 EMaxC= 1.00D-01 BMatC= 7.23D-11 BMatP= 4.07D-09
 IDIUse=1 WtCom= 1.00D+00 WtEn= 0.00D+00
 Coeff-Com: -0.634D-01 0.106D+01
 Coeff:     -0.634D-01 0.106D+01
 Gap=     0.519 Goal=   None    Shift=    0.000
 RMSDP=3.23D-07 MaxDP=1.73D-06 DE=-3.12D-09 OVMax= 5.67D-06

 Cycle   9  Pass 1  IDiag  1:
 E= -76.4139102996338     Delta-E=       -0.000000000064 Rises=F Damp=F
 DIIS: error= 1.24D-06 at cycle   3 NSaved=   3.
 NSaved= 3 IEnMin= 3 EnMin= -76.4139102996338     IErMin= 3 ErrMin= 1.24D-06
 ErrMax= 1.24D-06  0.00D+00 EMaxC= 1.00D-01 BMatC= 2.95D-11 BMatP= 7.23D-11
 IDIUse=1 WtCom= 1.00D+00 WtEn= 0.00D+00
 Coeff-Com: -0.377D-01 0.428D+00 0.610D+00
 Coeff:     -0.377D-01 0.428D+00 0.610D+00
 Gap=     0.519 Goal=   None    Shift=    0.000
 RMSDP=9.10D-08 MaxDP=1.18D-06 DE=-6.42D-11 OVMax= 1.30D-06

 Cycle  10  Pass 1  IDiag  1:
 E= -76.4139102996523     Delta-E=       -0.000000000018 Rises=F Damp=F
 DIIS: error= 2.22D-07 at cycle   4 NSaved=   4.
 NSaved= 4 IEnMin= 4 EnMin= -76.4139102996523     IErMin= 4 ErrMin= 2.22D-07
 ErrMax= 2.22D-07  0.00D+00 EMaxC= 1.00D-01 BMatC= 1.37D-12 BMatP= 2.95D-11
 IDIUse=1 WtCom= 1.00D+00 WtEn= 0.00D+00
 Coeff-Com: -0.453D-02 0.122D-01 0.159D+00 0.833D+00
 Coeff:     -0.453D-02 0.122D-01 0.159D+00 0.833D+00
 Gap=     0.519 Goal=   None    Shift=    0.000
 RMSDP=4.16D-08 MaxDP=3.37D-07 DE=-1.84D-11 OVMax= 8.76D-07

 Cycle  11  Pass 1  IDiag  1:
 E= -76.4139102996540     Delta-E=       -0.000000000002 Rises=F Damp=F
 DIIS: error= 4.24D-08 at cycle   5 NSaved=   5.
 NSaved= 5 IEnMin= 5 EnMin= -76.4139102996540     IErMin= 5 ErrMin= 4.24D-08
 ErrMax= 4.24D-08  0.00D+00 EMaxC= 1.00D-01 BMatC= 6.74D-14 BMatP= 1.37D-12
 IDIUse=1 WtCom= 1.00D+00 WtEn= 0.00D+00
 Coeff-Com:  0.261D-02-0.325D-01-0.553D-01-0.182D-01 0.110D+01
 Coeff:      0.261D-02-0.325D-01-0.553D-01-0.182D-01 0.110D+01
 Gap=     0.519 Goal=   None    Shift=    0.000
 RMSDP=2.05D-08 MaxDP=1.46D-07 DE=-1.78D-12 OVMax= 4.17D-07

 Cycle  12  Pass 1  IDiag  1:
 E= -76.4139102996542     Delta-E=       -0.000000000000 Rises=F Damp=F
 DIIS: error= 8.50D-09 at cycle   6 NSaved=   6.
 NSaved= 6 IEnMin= 6 EnMin= -76.4139102996542     IErMin= 6 ErrMin= 8.50D-09
 ErrMax= 8.50D-09  0.00D+00 EMaxC= 1.00D-01 BMatC= 1.47D-15 BMatP= 6.74D-14
 IDIUse=1 WtCom= 1.00D+00 WtEn= 0.00D+00
 Coeff-Com: -0.101D-03 0.287D-02 0.211D-02-0.245D-01-0.175D+00 0.119D+01
 Coeff:     -0.101D-03 0.287D-02 0.211D-02-0.245D-01-0.175D+00 0.119D+01
 Gap=     0.519 Goal=   None    Shift=    0.000
 RMSDP=4.81D-09 MaxDP=5.19D-08 DE=-1.99D-13 OVMax= 9.23D-08

 SCF Done:  E(RwB97XD) =  -76.4139102997     A.U. after   12 cycles
            NFock= 12  Conv=0.48D-08     -V/T= 1.9993
 KE= 7.646536437957D+01 PE=-2.005456036146D+02 EE= 3.801656363761D+01
 Leave Link  502 at Wed Feb  8 14:40:15 2023, MaxMem=   754974720 cpu:               1.6 elap:               0.4
 (Enter /opt/cluster/programs/g16-c.01/g16/l601.exe)
 Copying SCF densities to generalized density rwf, IOpCl= 0 IROHF=0.

 **********************************************************************

            Population analysis using the SCF Density.

 **********************************************************************

 Orbital symmetries:
       Occupied  (A1) (A1) (B2) (A1) (B1)
       Virtual   (A1) (B2) (A1) (B2) (A1) (B1) (B2) (A1) (A2) (A1)
                 (B1) (B2) (A1) (B2) (A1) (B2) (B1) (A1) (A2) (B2)
                 (A1) (B1) (A1) (B2) (A1)
 The electronic state is 1-A1.
 Alpha  occ. eigenvalues --  -19.20917  -1.11244  -0.65739  -0.43674  -0.38630
 Alpha virt. eigenvalues --    0.13250   0.20134   0.48844   0.52658   0.84843
 Alpha virt. eigenvalues --    0.85608   0.95143   1.14575   1.31845   1.54047
 Alpha virt. eigenvalues --    1.64276   1.68694   2.11718   2.16372   2.49604
 Alpha virt. eigenvalues --    2.53271   3.15262   3.35963   3.36279   3.88700
 Alpha virt. eigenvalues --    3.91458   4.89759   5.24094   6.01878  50.07361
          Condensed to atoms (all electrons):
               1          2          3
     1  O    7.833676   0.351099   0.351099
     2  H    0.351099   0.412502  -0.031537
     3  H    0.351099  -0.031537   0.412502
 Mulliken charges:
               1
     1  O   -0.535873
     2  H    0.267937
     3  H    0.267937
 Sum of Mulliken charges =  -0.00000
 Mulliken charges with hydrogens summed into heavy atoms:
               1
     1  O   -0.000000
 Electronic spatial extent (au):  <R**2>=             18.3543
 Charge=             -0.0000 electrons
 Dipole moment (field-independent basis, Debye):
    X=             -0.0000    Y=              0.0000    Z=             -1.8097  Tot=              1.8097
 Quadrupole moment (field-independent basis, Debye-Ang):
   XX=             -7.0736   YY=             -3.6878   ZZ=             -6.3797
   XY=              0.0000   XZ=              0.0000   YZ=             -0.0000
 Traceless Quadrupole moment (field-independent basis, Debye-Ang):
   XX=             -1.3599   YY=              2.0259   ZZ=             -0.6660
   XY=              0.0000   XZ=              0.0000   YZ=             -0.0000
 Octapole moment (field-independent basis, Debye-Ang**2):
  XXX=              0.0000  YYY=             -0.0000  ZZZ=             -1.0541  XYY=             -0.0000
  XXY=             -0.0000  XXZ=             -0.3131  XZZ=              0.0000  YZZ=             -0.0000
  YYZ=             -1.1480  XYZ=             -0.0000
 Hexadecapole moment (field-independent basis, Debye-Ang**3):
 XXXX=             -5.1364 YYYY=             -4.9428 ZZZZ=             -5.7450 XXXY=             -0.0000
 XXXZ=             -0.0000 YYYX=              0.0000 YYYZ=              0.0000 ZZZX=             -0.0000
 ZZZY=              0.0000 XXYY=             -2.0361 XXZZ=             -1.8337 YYZZ=             -1.7100
 XXYZ=              0.0000 YYXZ=              0.0000 ZZXY=             -0.0000
 N-N= 9.649765297812D+00 E-N=-2.005456035230D+02  KE= 7.646536437957D+01
 Symmetry A1   KE= 6.814267651289D+01
 Symmetry A2   KE= 2.079552524680D-35
 Symmetry B1   KE= 4.613756457038D+00
 Symmetry B2   KE= 3.708931409637D+00
 No NMR shielding tensors so no spin-rotation constants.
 Leave Link  601 at Wed Feb  8 14:40:16 2023, MaxMem=   754974720 cpu:               1.3 elap:               0.7
 (Enter /opt/cluster/programs/g16-c.01/g16/l9999.exe)
 Unable to Open any file for archive entry.
 1\1\GINC-NODE57\SP\RwB97XD\6-311G(d,p)\H2O1\BOITTIER\08-Feb-2023\0\\#P
  wB97XD/6-311g** scf(maxcycle=200)\\Gaussian input\\0,1\O,0,0.,0.11751
 ,0.\H,0,0.7183372325,-0.4395112028,0.\H,0,-0.8442356762,-0.21945754,0.
 \\Version=ES64L-G16RevC.01\State=1-A1\HF=-76.4139103\RMSD=4.806e-09\Di
 pole=-0.0992905,-0.7050491,0.\Quadrupole=1.4673224,-0.4562492,-1.01107
 31,-0.2763735,0.,0.\PG=C02V [C2(O1),SGV(H2)]\\@
 The archive entry for this job was punched.


 I do not feel obliged to believe that the same God who
 has endowed us with sense, reason, and intellect has
 intended us to forgo their use.
                   --Galileo Galilei
 Job cpu time:       0 days  0 hours  0 minutes  6.4 seconds.
 Elapsed time:       0 days  0 hours  0 minutes  2.6 seconds.
 File lengths (MBytes):  RWF=      6 Int=      0 D2E=      0 Chk=      1 Scr=      1
 Normal termination of Gaussian 16 at Wed Feb  8 14:40:16 2023.
