 Entering Gaussian System, Link 0=/opt/cluster/programs/g16-c.01/g16/g16
 Input=/scratch/boittier/jobs/tmp.7311872/gaussian_44_water_hf_adz2.com
 Output=/scratch/boittier/jobs/tmp.7311872/gaussian_44_water_hf_adz2.out
 Initial command:
 /opt/cluster/programs/g16-c.01/g16/l1.exe "/scratch/boittier/jobs/tmp.7311872/Gau-180232.inp" -scrdir="/scratch/boittier/jobs/tmp.7311872/"
 Entering Link 1 = /opt/cluster/programs/g16-c.01/g16/l1.exe PID=    180236.
  
 Copyright (c) 1988-2019, Gaussian, Inc.  All Rights Reserved.
  
 This is part of the Gaussian(R) 16 program.  It is based on
 the Gaussian(R) 09 system (copyright 2009, Gaussian, Inc.),
 the Gaussian(R) 03 system (copyright 2003, Gaussian, Inc.),
 the Gaussian(R) 98 system (copyright 1998, Gaussian, Inc.),
 the Gaussian(R) 94 system (copyright 1995, Gaussian, Inc.),
 the Gaussian 92(TM) system (copyright 1992, Gaussian, Inc.),
 the Gaussian 90(TM) system (copyright 1990, Gaussian, Inc.),
 the Gaussian 88(TM) system (copyright 1988, Gaussian, Inc.),
 the Gaussian 86(TM) system (copyright 1986, Carnegie Mellon
 University), and the Gaussian 82(TM) system (copyright 1983,
 Carnegie Mellon University). Gaussian is a federally registered
 trademark of Gaussian, Inc.
  
 This software contains proprietary and confidential information,
 including trade secrets, belonging to Gaussian, Inc.
  
 This software is provided under written license and may be
 used, copied, transmitted, or stored only in accord with that
 written license.
  
 The following legend is applicable only to US Government
 contracts under FAR:
  
                    RESTRICTED RIGHTS LEGEND
  
 Use, reproduction and disclosure by the US Government is
 subject to restrictions as set forth in subparagraphs (a)
 and (c) of the Commercial Computer Software - Restricted
 Rights clause in FAR 52.227-19.
  
 Gaussian, Inc.
 340 Quinnipiac St., Bldg. 40, Wallingford CT 06492
  
  
 ---------------------------------------------------------------
 Warning -- This program may not be used in any manner that
 competes with the business of Gaussian, Inc. or will provide
 assistance to any competitor of Gaussian, Inc.  The licensee
 of this program is prohibited from giving any competitor of
 Gaussian, Inc. access to this program.  By using this program,
 the user acknowledges that Gaussian, Inc. is engaged in the
 business of creating and licensing software in the field of
 computational chemistry and represents and warrants to the
 licensee that it is not a competitor of Gaussian, Inc. and that
 it will not use this program in any manner prohibited above.
 ---------------------------------------------------------------
  

 Cite this work as:
 Gaussian 16, Revision C.01,
 M. J. Frisch, G. W. Trucks, H. B. Schlegel, G. E. Scuseria, 
 M. A. Robb, J. R. Cheeseman, G. Scalmani, V. Barone, 
 G. A. Petersson, H. Nakatsuji, X. Li, M. Caricato, A. V. Marenich, 
 J. Bloino, B. G. Janesko, R. Gomperts, B. Mennucci, H. P. Hratchian, 
 J. V. Ortiz, A. F. Izmaylov, J. L. Sonnenberg, D. Williams-Young, 
 F. Ding, F. Lipparini, F. Egidi, J. Goings, B. Peng, A. Petrone, 
 T. Henderson, D. Ranasinghe, V. G. Zakrzewski, J. Gao, N. Rega, 
 G. Zheng, W. Liang, M. Hada, M. Ehara, K. Toyota, R. Fukuda, 
 J. Hasegawa, M. Ishida, T. Nakajima, Y. Honda, O. Kitao, H. Nakai, 
 T. Vreven, K. Throssell, J. A. Montgomery, Jr., J. E. Peralta, 
 F. Ogliaro, M. J. Bearpark, J. J. Heyd, E. N. Brothers, K. N. Kudin, 
 V. N. Staroverov, T. A. Keith, R. Kobayashi, J. Normand, 
 K. Raghavachari, A. P. Rendell, J. C. Burant, S. S. Iyengar, 
 J. Tomasi, M. Cossi, J. M. Millam, M. Klene, C. Adamo, R. Cammi, 
 J. W. Ochterski, R. L. Martin, K. Morokuma, O. Farkas, 
 J. B. Foresman, and D. J. Fox, Gaussian, Inc., Wallingford CT, 2019.
 
 ******************************************
 Gaussian 16:  ES64L-G16RevC.01  3-Jul-2019
                20-Feb-2023 
 ******************************************
 %nproc=4
 Will use up to    4 processors via shared memory.
 %mem=5760MB
 %chk=gaussian_44_water_hf_adz2.chk
 -----------------------------------
 #P HF/aug-cc-pVDZ scf(maxcycle=200)
 -----------------------------------
 1/38=1,172=1/1;
 2/12=2,17=6,18=5,40=1/2;
 3/5=16,7=10,11=9,25=1,30=1/1,2,3;
 4//1;
 5/5=2,7=200,38=5/2;
 6/7=2,8=2,9=2,10=2,28=1/1;
 99/5=1,9=1/99;
 Leave Link    1 at Mon Feb 20 10:15:16 2023, MaxMem=   754974720 cpu:               0.1 elap:               0.0
 (Enter /opt/cluster/programs/g16-c.01/g16/l101.exe)
 --------------
 Gaussian input
 --------------
 Symbolic Z-matrix:
 Charge =  0 Multiplicity = 1
 O                     0.        0.11751   0. 
 H                     0.71834  -0.43951   0. 
 H                    -0.65182  -0.65269   0. 
 
 ITRead=  0  0  0
 MicOpt= -1 -1 -1
 NAtoms=      3 NQM=        3 NQMF=       0 NMMI=      0 NMMIF=      0
                NMic=       0 NMicF=      0.
                    Isotopes and Nuclear Properties:
 (Nuclear quadrupole moments (NQMom) in fm**2, nuclear magnetic moments (NMagM)
  in nuclear magnetons)

  Atom         1           2           3
 IAtWgt=          16           1           1
 AtmWgt=  15.9949146   1.0078250   1.0078250
 NucSpn=           0           1           1
 AtZEff=  -0.0000000  -0.0000000  -0.0000000
 NQMom=    0.0000000   0.0000000   0.0000000
 NMagM=    0.0000000   2.7928460   2.7928460
 AtZNuc=   8.0000000   1.0000000   1.0000000
 Leave Link  101 at Mon Feb 20 10:15:16 2023, MaxMem=   754974720 cpu:               0.4 elap:               0.2
 (Enter /opt/cluster/programs/g16-c.01/g16/l202.exe)
                          Input orientation:                          
 ---------------------------------------------------------------------
 Center     Atomic      Atomic             Coordinates (Angstroms)
 Number     Number       Type             X           Y           Z
 ---------------------------------------------------------------------
      1          8           0        0.000000    0.117510    0.000000
      2          1           0        0.718337   -0.439511    0.000000
      3          1           0       -0.651820   -0.652693    0.000000
 ---------------------------------------------------------------------
                    Distance matrix (angstroms):
                    1          2          3
     1  O    0.000000
     2  H    0.909000   0.000000
     3  H    1.009000   1.386642   0.000000
 Stoichiometry    H2O
 Framework group  CS[SG(H2O)]
 Deg. of freedom     3
 Full point group                 CS      NOp   2
 Largest Abelian subgroup         CS      NOp   2
 Largest concise Abelian subgroup C1      NOp   1
                         Standard orientation:                         
 ---------------------------------------------------------------------
 Center     Atomic      Atomic             Coordinates (Angstroms)
 Number     Number       Type             X           Y           Z
 ---------------------------------------------------------------------
      1          8           0        0.000000    0.132889    0.000000
      2          1           0        0.689555   -0.459390    0.000000
      3          1           0       -0.689555   -0.603721    0.000000
 ---------------------------------------------------------------------
 Rotational constants (GHZ):         672.0112845         501.7844360         287.2772472
 Leave Link  202 at Mon Feb 20 10:15:17 2023, MaxMem=   754974720 cpu:               0.2 elap:               0.1
 (Enter /opt/cluster/programs/g16-c.01/g16/l301.exe)
 Standard basis: Aug-CC-pVDZ (5D, 7F)
 Ernie: Thresh=  0.10000D-02 Tol=  0.10000D-05 Strict=F.
 Ernie:  2 primitive shells out of 39 were deleted.
 There are    32 symmetry adapted cartesian basis functions of A'  symmetry.
 There are    11 symmetry adapted cartesian basis functions of A"  symmetry.
 There are    30 symmetry adapted basis functions of A'  symmetry.
 There are    11 symmetry adapted basis functions of A"  symmetry.
    41 basis functions,    65 primitive gaussians,    43 cartesian basis functions
     5 alpha electrons        5 beta electrons
       nuclear repulsion energy         9.2345068827 Hartrees.
 IExCor=    0 DFT=F Ex=HF Corr=None ExCW=0 ScaHFX=  1.000000
 ScaDFX=  1.000000  1.000000  1.000000  1.000000 ScalE2=  1.000000  1.000000
 IRadAn=      5 IRanWt=     -1 IRanGd=            0 ICorTp=0 IEmpDi=  4
 NAtoms=    3 NActive=    3 NUniq=    3 SFac= 1.00D+00 NAtFMM=   60 NAOKFM=F Big=F
 Integral buffers will be    131072 words long.
 Raffenetti 1 integral format.
 Two-electron integral symmetry is turned on.
 Leave Link  301 at Mon Feb 20 10:15:17 2023, MaxMem=   754974720 cpu:               0.3 elap:               0.2
 (Enter /opt/cluster/programs/g16-c.01/g16/l302.exe)
 NPDir=0 NMtPBC=     1 NCelOv=     1 NCel=       1 NClECP=     1 NCelD=      1
         NCelK=      1 NCelE2=     1 NClLst=     1 CellRange=     0.0.
 One-electron integrals computed using PRISM.
 One-electron integral symmetry used in STVInt
 NBasis=    41 RedAO= T EigKep=  2.06D-03  NBF=    30    11
 NBsUse=    41 1.00D-06 EigRej= -1.00D+00 NBFU=    30    11
 Leave Link  302 at Mon Feb 20 10:15:17 2023, MaxMem=   754974720 cpu:               1.1 elap:               0.5
 (Enter /opt/cluster/programs/g16-c.01/g16/l303.exe)
 DipDrv:  MaxL=1.
 Leave Link  303 at Mon Feb 20 10:15:18 2023, MaxMem=   754974720 cpu:               0.5 elap:               0.3
 (Enter /opt/cluster/programs/g16-c.01/g16/l401.exe)
 ExpMin= 2.97D-02 ExpMax= 1.17D+04 ExpMxC= 4.01D+02 IAcc=3 IRadAn=         5 AccDes= 0.00D+00
 Harris functional with IExCor=  205 and IRadAn=       5 diagonalized for initial guess.
 HarFok:  IExCor=  205 AccDes= 0.00D+00 IRadAn=         5 IDoV= 1 UseB2=F ITyADJ=14
 ICtDFT=  3500011 ScaDFX=  1.000000  1.000000  1.000000  1.000000
 FoFCou: FMM=F IPFlag=           0 FMFlag=      100000 FMFlg1=           0
         NFxFlg=           0 DoJE=T BraDBF=F KetDBF=T FulRan=T
         wScrn=  0.000000 ICntrl=       500 IOpCl=  0 I1Cent=   200000004 NGrid=           0
         NMat0=    1 NMatS0=      1 NMatT0=    0 NMatD0=    1 NMtDS0=    0 NMtDT0=    0
 Petite list used in FoFCou.
 Harris En= -76.1163092393937    
 JPrj=0 DoOrth=F DoCkMO=F.
 Initial guess orbital symmetries:
       Occupied  (A') (A') (A') (A') (A")
       Virtual   (A') (A') (A') (A") (A') (A') (A') (A') (A') (A")
                 (A") (A') (A') (A') (A') (A') (A") (A') (A") (A')
                 (A") (A') (A') (A") (A') (A") (A') (A') (A') (A')
                 (A') (A") (A') (A") (A') (A')
 The electronic state of the initial guess is 1-A'.
 Leave Link  401 at Mon Feb 20 10:15:18 2023, MaxMem=   754974720 cpu:               1.7 elap:               0.9
 (Enter /opt/cluster/programs/g16-c.01/g16/l502.exe)
 Keep R1 ints in memory in symmetry-blocked form, NReq=1210682.
 FoFCou: FMM=F IPFlag=           0 FMFlag=           0 FMFlg1=           0
         NFxFlg=           0 DoJE=F BraDBF=F KetDBF=F FulRan=T
         wScrn=  0.000000 ICntrl=       600 IOpCl=  0 I1Cent=           0 NGrid=           0
         NMat0=    1 NMatS0=    861 NMatT0=    0 NMatD0=    1 NMtDS0=    0 NMtDT0=    0
 Petite list used in FoFCou.
 Closed shell SCF:
 Using DIIS extrapolation, IDIIS=  1040.
 NGot=   754974720 LenX=   754771907 LenY=   754769617
 Requested convergence on RMS density matrix=1.00D-08 within 200 cycles.
 Requested convergence on MAX density matrix=1.00D-06.
 Requested convergence on             energy=1.00D-06.
 No special actions if energy rises.

 Cycle   1  Pass 1  IDiag  1:
 E= -75.9543393889609    
 DIIS: error= 5.04D-02 at cycle   1 NSaved=   1.
 NSaved= 1 IEnMin= 1 EnMin= -75.9543393889609     IErMin= 1 ErrMin= 5.04D-02
 ErrMax= 5.04D-02  0.00D+00 EMaxC= 1.00D-01 BMatC= 1.17D-01 BMatP= 1.17D-01
 IDIUse=3 WtCom= 4.96D-01 WtEn= 5.04D-01
 Coeff-Com:  0.100D+01
 Coeff-En:   0.100D+01
 Coeff:      0.100D+01
 Gap=     0.461 Goal=   None    Shift=    0.000
 GapD=    0.461 DampG=2.000 DampE=0.500 DampFc=1.0000 IDamp=-1.
 RMSDP=6.35D-03 MaxDP=1.17D-01              OVMax= 1.22D-01

 Cycle   2  Pass 1  IDiag  1:
 E= -75.9985892359499     Delta-E=       -0.044249846989 Rises=F Damp=F
 DIIS: error= 4.05D-02 at cycle   2 NSaved=   2.
 NSaved= 2 IEnMin= 2 EnMin= -75.9985892359499     IErMin= 2 ErrMin= 4.05D-02
 ErrMax= 4.05D-02  0.00D+00 EMaxC= 1.00D-01 BMatC= 4.65D-02 BMatP= 1.17D-01
 IDIUse=3 WtCom= 5.95D-01 WtEn= 4.05D-01
 Coeff-Com:  0.376D+00 0.624D+00
 Coeff-En:   0.218D+00 0.782D+00
 Coeff:      0.312D+00 0.688D+00
 Gap=     0.564 Goal=   None    Shift=    0.000
 RMSDP=3.01D-03 MaxDP=5.48D-02 DE=-4.42D-02 OVMax= 5.93D-02

 Cycle   3  Pass 1  IDiag  1:
 E= -76.0306395444975     Delta-E=       -0.032050308548 Rises=F Damp=F
 DIIS: error= 4.54D-03 at cycle   3 NSaved=   3.
 NSaved= 3 IEnMin= 3 EnMin= -76.0306395444975     IErMin= 3 ErrMin= 4.54D-03
 ErrMax= 4.54D-03  0.00D+00 EMaxC= 1.00D-01 BMatC= 1.16D-03 BMatP= 4.65D-02
 IDIUse=3 WtCom= 9.55D-01 WtEn= 4.54D-02
 Coeff-Com: -0.389D-01 0.903D-01 0.949D+00
 Coeff-En:   0.000D+00 0.000D+00 0.100D+01
 Coeff:     -0.371D-01 0.862D-01 0.951D+00
 Gap=     0.545 Goal=   None    Shift=    0.000
 RMSDP=4.72D-04 MaxDP=8.34D-03 DE=-3.21D-02 OVMax= 9.37D-03

 Cycle   4  Pass 1  IDiag  1:
 E= -76.0315249699827     Delta-E=       -0.000885425485 Rises=F Damp=F
 DIIS: error= 6.93D-04 at cycle   4 NSaved=   4.
 NSaved= 4 IEnMin= 4 EnMin= -76.0315249699827     IErMin= 4 ErrMin= 6.93D-04
 ErrMax= 6.93D-04  0.00D+00 EMaxC= 1.00D-01 BMatC= 8.00D-06 BMatP= 1.16D-03
 IDIUse=3 WtCom= 9.93D-01 WtEn= 6.93D-03
 Coeff-Com:  0.995D-02-0.444D-01-0.349D+00 0.138D+01
 Coeff-En:   0.000D+00 0.000D+00 0.000D+00 0.100D+01
 Coeff:      0.988D-02-0.441D-01-0.347D+00 0.138D+01
 Gap=     0.546 Goal=   None    Shift=    0.000
 RMSDP=1.15D-04 MaxDP=1.26D-03 DE=-8.85D-04 OVMax= 2.23D-03

 Cycle   5  Pass 1  IDiag  1:
 E= -76.0315449034057     Delta-E=       -0.000019933423 Rises=F Damp=F
 DIIS: error= 1.81D-04 at cycle   5 NSaved=   5.
 NSaved= 5 IEnMin= 5 EnMin= -76.0315449034057     IErMin= 5 ErrMin= 1.81D-04
 ErrMax= 1.81D-04  0.00D+00 EMaxC= 1.00D-01 BMatC= 3.32D-07 BMatP= 8.00D-06
 IDIUse=3 WtCom= 9.98D-01 WtEn= 1.81D-03
 Coeff-Com: -0.805D-03 0.624D-02 0.475D-01-0.347D+00 0.129D+01
 Coeff-En:   0.000D+00 0.000D+00 0.000D+00 0.000D+00 0.100D+01
 Coeff:     -0.804D-03 0.623D-02 0.474D-01-0.347D+00 0.129D+01
 Gap=     0.547 Goal=   None    Shift=    0.000
 RMSDP=2.58D-05 MaxDP=4.08D-04 DE=-1.99D-05 OVMax= 5.59D-04

 Cycle   6  Pass 1  IDiag  1:
 E= -76.0315458748687     Delta-E=       -0.000000971463 Rises=F Damp=F
 DIIS: error= 2.91D-05 at cycle   6 NSaved=   6.
 NSaved= 6 IEnMin= 6 EnMin= -76.0315458748687     IErMin= 6 ErrMin= 2.91D-05
 ErrMax= 2.91D-05  0.00D+00 EMaxC= 1.00D-01 BMatC= 1.13D-08 BMatP= 3.32D-07
 IDIUse=1 WtCom= 1.00D+00 WtEn= 0.00D+00
 Coeff-Com: -0.335D-03 0.121D-02 0.926D-02-0.163D-01-0.195D+00 0.120D+01
 Coeff:     -0.335D-03 0.121D-02 0.926D-02-0.163D-01-0.195D+00 0.120D+01
 Gap=     0.547 Goal=   None    Shift=    0.000
 RMSDP=4.31D-06 MaxDP=8.21D-05 DE=-9.71D-07 OVMax= 1.09D-04

 Cycle   7  Pass 1  IDiag  1:
 E= -76.0315459076341     Delta-E=       -0.000000032765 Rises=F Damp=F
 DIIS: error= 5.23D-06 at cycle   7 NSaved=   7.
 NSaved= 7 IEnMin= 7 EnMin= -76.0315459076341     IErMin= 7 ErrMin= 5.23D-06
 ErrMax= 5.23D-06  0.00D+00 EMaxC= 1.00D-01 BMatC= 5.33D-10 BMatP= 1.13D-08
 IDIUse=1 WtCom= 1.00D+00 WtEn= 0.00D+00
 Coeff-Com:  0.128D-03-0.637D-03-0.513D-02 0.244D-01-0.229D-01-0.263D+00
 Coeff-Com:  0.127D+01
 Coeff:      0.128D-03-0.637D-03-0.513D-02 0.244D-01-0.229D-01-0.263D+00
 Coeff:      0.127D+01
 Gap=     0.547 Goal=   None    Shift=    0.000
 RMSDP=8.51D-07 MaxDP=1.27D-05 DE=-3.28D-08 OVMax= 2.19D-05

 Cycle   8  Pass 1  IDiag  1:
 E= -76.0315459088667     Delta-E=       -0.000000001233 Rises=F Damp=F
 DIIS: error= 6.38D-07 at cycle   8 NSaved=   8.
 NSaved= 8 IEnMin= 8 EnMin= -76.0315459088667     IErMin= 8 ErrMin= 6.38D-07
 ErrMax= 6.38D-07  0.00D+00 EMaxC= 1.00D-01 BMatC= 1.31D-11 BMatP= 5.33D-10
 IDIUse=1 WtCom= 1.00D+00 WtEn= 0.00D+00
 Coeff-Com: -0.215D-04 0.119D-03 0.101D-02-0.574D-02 0.113D-01 0.364D-01
 Coeff-Com: -0.352D+00 0.131D+01
 Coeff:     -0.215D-04 0.119D-03 0.101D-02-0.574D-02 0.113D-01 0.364D-01
 Coeff:     -0.352D+00 0.131D+01
 Gap=     0.547 Goal=   None    Shift=    0.000
 RMSDP=1.82D-07 MaxDP=2.33D-06 DE=-1.23D-09 OVMax= 3.45D-06

 Cycle   9  Pass 1  IDiag  1:
 E= -76.0315459089007     Delta-E=       -0.000000000034 Rises=F Damp=F
 DIIS: error= 1.03D-07 at cycle   9 NSaved=   9.
 NSaved= 9 IEnMin= 9 EnMin= -76.0315459089007     IErMin= 9 ErrMin= 1.03D-07
 ErrMax= 1.03D-07  0.00D+00 EMaxC= 1.00D-01 BMatC= 3.76D-13 BMatP= 1.31D-11
 IDIUse=1 WtCom= 1.00D+00 WtEn= 0.00D+00
 Coeff-Com: -0.946D-06 0.335D-05 0.978D-05 0.141D-03-0.118D-02 0.271D-02
 Coeff-Com:  0.204D-01-0.214D+00 0.119D+01
 Coeff:     -0.946D-06 0.335D-05 0.978D-05 0.141D-03-0.118D-02 0.271D-02
 Coeff:      0.204D-01-0.214D+00 0.119D+01
 Gap=     0.547 Goal=   None    Shift=    0.000
 RMSDP=2.87D-08 MaxDP=3.21D-07 DE=-3.40D-11 OVMax= 4.74D-07

 Cycle  10  Pass 1  IDiag  1:
 E= -76.0315459089017     Delta-E=       -0.000000000001 Rises=F Damp=F
 DIIS: error= 2.56D-08 at cycle  10 NSaved=  10.
 NSaved=10 IEnMin=10 EnMin= -76.0315459089017     IErMin=10 ErrMin= 2.56D-08
 ErrMax= 2.56D-08  0.00D+00 EMaxC= 1.00D-01 BMatC= 2.28D-14 BMatP= 3.76D-13
 IDIUse=1 WtCom= 1.00D+00 WtEn= 0.00D+00
 Coeff-Com:  0.119D-05-0.626D-05-0.481D-04 0.226D-03-0.213D-03-0.230D-02
 Coeff-Com:  0.115D-01-0.144D-01-0.301D+00 0.131D+01
 Coeff:      0.119D-05-0.626D-05-0.481D-04 0.226D-03-0.213D-03-0.230D-02
 Coeff:      0.115D-01-0.144D-01-0.301D+00 0.131D+01
 Gap=     0.547 Goal=   None    Shift=    0.000
 RMSDP=8.32D-09 MaxDP=8.90D-08 DE=-9.38D-13 OVMax= 1.67D-07

 SCF Done:  E(RHF) =  -76.0315459089     A.U. after   10 cycles
            NFock= 10  Conv=0.83D-08     -V/T= 2.0010
 KE= 7.595639843326D+01 PE=-1.989588323933D+02 EE= 3.773638116851D+01
 Leave Link  502 at Mon Feb 20 10:15:21 2023, MaxMem=   754974720 cpu:               5.8 elap:               2.9
 (Enter /opt/cluster/programs/g16-c.01/g16/l601.exe)
 Copying SCF densities to generalized density rwf, IOpCl= 0 IROHF=0.

 **********************************************************************

            Population analysis using the SCF Density.

 **********************************************************************

 Orbital symmetries:
       Occupied  (A') (A') (A') (A') (A")
       Virtual   (A') (A') (A') (A") (A') (A') (A') (A') (A') (A")
                 (A") (A') (A') (A') (A') (A') (A") (A') (A") (A')
                 (A') (A") (A') (A") (A') (A") (A') (A') (A') (A')
                 (A') (A") (A') (A") (A') (A')
 The electronic state is 1-A'.
 Alpha  occ. eigenvalues --  -20.58200  -1.36754  -0.69438  -0.60805  -0.51287
 Alpha virt. eigenvalues --    0.03409   0.05901   0.17191   0.19803   0.22181
 Alpha virt. eigenvalues --    0.23511   0.28392   0.35157   0.38288   0.39094
 Alpha virt. eigenvalues --    0.41880   0.55072   0.63570   0.66310   0.78723
 Alpha virt. eigenvalues --    0.96247   1.11017   1.12558   1.14745   1.27566
 Alpha virt. eigenvalues --    1.43722   1.46793   1.61229   1.98691   2.03455
 Alpha virt. eigenvalues --    2.14236   2.20789   2.45389   2.64105   2.75280
 Alpha virt. eigenvalues --    3.04517   3.67490   3.69983   3.70406   3.97428
 Alpha virt. eigenvalues --    4.33991
          Condensed to atoms (all electrons):
               1          2          3
     1  O    7.630862   0.344044   0.311666
     2  H    0.344044   0.581677  -0.018069
     3  H    0.311666  -0.018069   0.512179
 Mulliken charges:
               1
     1  O   -0.286572
     2  H    0.092348
     3  H    0.194224
 Sum of Mulliken charges =  -0.00000
 Mulliken charges with hydrogens summed into heavy atoms:
               1
     1  O   -0.000000
 Electronic spatial extent (au):  <R**2>=             19.5345
 Charge=             -0.0000 electrons
 Dipole moment (field-independent basis, Debye):
    X=              0.0595    Y=             -2.1858    Z=              0.0000  Tot=              2.1866
 Quadrupole moment (field-independent basis, Debye-Ang):
   XX=             -4.8212   YY=             -5.8733   ZZ=             -7.5695
   XY=              0.2027   XZ=              0.0000   YZ=              0.0000
 Traceless Quadrupole moment (field-independent basis, Debye-Ang):
   XX=              1.2668   YY=              0.2147   ZZ=             -1.4815
   XY=              0.2027   XZ=              0.0000   YZ=              0.0000
 Octapole moment (field-independent basis, Debye-Ang**2):
  XXX=              0.1636  YYY=             -1.4568  ZZZ=              0.0000  XYY=             -0.1662
  XXY=             -1.3023  XXZ=              0.0000  XZZ=              0.0622  YZZ=             -0.3147
  YYZ=              0.0000  XYZ=              0.0000
 Hexadecapole moment (field-independent basis, Debye-Ang**3):
 XXXX=             -6.3561 YYYY=             -7.3625 ZZZZ=             -6.7377 XXXY=             -0.0665
 XXXZ=              0.0000 YYYX=              0.0199 YYYZ=              0.0000 ZZZX=              0.0000
 ZZZY=              0.0000 XXYY=             -1.8368 XXZZ=             -2.3900 YYZZ=             -2.4379
 XXYZ=              0.0000 YYXZ=              0.0000 ZZXY=             -0.0676
 N-N= 9.234506882682D+00 E-N=-1.989588322283D+02  KE= 7.595639843326D+01
 Symmetry A'   KE= 7.149833399244D+01
 Symmetry A"   KE= 4.458064440820D+00
 No NMR shielding tensors so no spin-rotation constants.
 Leave Link  601 at Mon Feb 20 10:15:22 2023, MaxMem=   754974720 cpu:               1.6 elap:               0.8
 (Enter /opt/cluster/programs/g16-c.01/g16/l9999.exe)
 Unable to Open any file for archive entry.
 1\1\GINC-NODE105\SP\RHF\Aug-CC-pVDZ\H2O1\BOITTIER\20-Feb-2023\0\\#P HF
 /aug-cc-pVDZ scf(maxcycle=200)\\Gaussian input\\0,1\O,0,0.,0.11751,0.\
 H,0,0.7183372325,-0.4395112028,0.\H,0,-0.6518197504,-0.6526925792,0.\\
 Version=ES64L-G16RevC.01\State=1-A'\HF=-76.0315459\RMSD=8.318e-09\Dipo
 le=0.0664407,-0.8577245,0.\Quadrupole=0.9248,0.1766699,-1.1014699,0.18
 9062,0.,0.\PG=CS [SG(H2O1)]\\@
 The archive entry for this job was punched.


 MISERY NO LONGER LOVES COMPANY.  NOWADAYS IT INSISTS ON IT.

                                              -- BAKER'S LAW
 Job cpu time:       0 days  0 hours  0 minutes 12.0 seconds.
 Elapsed time:       0 days  0 hours  0 minutes  6.0 seconds.
 File lengths (MBytes):  RWF=      6 Int=      0 D2E=      0 Chk=      1 Scr=      1
 Normal termination of Gaussian 16 at Mon Feb 20 10:15:22 2023.
