 Entering Gaussian System, Link 0=/opt/cluster/programs/g16-c.01/g16/g16
 Input=/scratch/boittier/jobs/tmp.7262002/gaussian_63_water_wb97_ptz.com
 Output=/scratch/boittier/jobs/tmp.7262002/gaussian_63_water_wb97_ptz.out
 Initial command:
 /opt/cluster/programs/g16-c.01/g16/l1.exe "/scratch/boittier/jobs/tmp.7262002/Gau-104276.inp" -scrdir="/scratch/boittier/jobs/tmp.7262002/"
 Entering Link 1 = /opt/cluster/programs/g16-c.01/g16/l1.exe PID=    104277.
  
 Copyright (c) 1988-2019, Gaussian, Inc.  All Rights Reserved.
  
 This is part of the Gaussian(R) 16 program.  It is based on
 the Gaussian(R) 09 system (copyright 2009, Gaussian, Inc.),
 the Gaussian(R) 03 system (copyright 2003, Gaussian, Inc.),
 the Gaussian(R) 98 system (copyright 1998, Gaussian, Inc.),
 the Gaussian(R) 94 system (copyright 1995, Gaussian, Inc.),
 the Gaussian 92(TM) system (copyright 1992, Gaussian, Inc.),
 the Gaussian 90(TM) system (copyright 1990, Gaussian, Inc.),
 the Gaussian 88(TM) system (copyright 1988, Gaussian, Inc.),
 the Gaussian 86(TM) system (copyright 1986, Carnegie Mellon
 University), and the Gaussian 82(TM) system (copyright 1983,
 Carnegie Mellon University). Gaussian is a federally registered
 trademark of Gaussian, Inc.
  
 This software contains proprietary and confidential information,
 including trade secrets, belonging to Gaussian, Inc.
  
 This software is provided under written license and may be
 used, copied, transmitted, or stored only in accord with that
 written license.
  
 The following legend is applicable only to US Government
 contracts under FAR:
  
                    RESTRICTED RIGHTS LEGEND
  
 Use, reproduction and disclosure by the US Government is
 subject to restrictions as set forth in subparagraphs (a)
 and (c) of the Commercial Computer Software - Restricted
 Rights clause in FAR 52.227-19.
  
 Gaussian, Inc.
 340 Quinnipiac St., Bldg. 40, Wallingford CT 06492
  
  
 ---------------------------------------------------------------
 Warning -- This program may not be used in any manner that
 competes with the business of Gaussian, Inc. or will provide
 assistance to any competitor of Gaussian, Inc.  The licensee
 of this program is prohibited from giving any competitor of
 Gaussian, Inc. access to this program.  By using this program,
 the user acknowledges that Gaussian, Inc. is engaged in the
 business of creating and licensing software in the field of
 computational chemistry and represents and warrants to the
 licensee that it is not a competitor of Gaussian, Inc. and that
 it will not use this program in any manner prohibited above.
 ---------------------------------------------------------------
  

 Cite this work as:
 Gaussian 16, Revision C.01,
 M. J. Frisch, G. W. Trucks, H. B. Schlegel, G. E. Scuseria, 
 M. A. Robb, J. R. Cheeseman, G. Scalmani, V. Barone, 
 G. A. Petersson, H. Nakatsuji, X. Li, M. Caricato, A. V. Marenich, 
 J. Bloino, B. G. Janesko, R. Gomperts, B. Mennucci, H. P. Hratchian, 
 J. V. Ortiz, A. F. Izmaylov, J. L. Sonnenberg, D. Williams-Young, 
 F. Ding, F. Lipparini, F. Egidi, J. Goings, B. Peng, A. Petrone, 
 T. Henderson, D. Ranasinghe, V. G. Zakrzewski, J. Gao, N. Rega, 
 G. Zheng, W. Liang, M. Hada, M. Ehara, K. Toyota, R. Fukuda, 
 J. Hasegawa, M. Ishida, T. Nakajima, Y. Honda, O. Kitao, H. Nakai, 
 T. Vreven, K. Throssell, J. A. Montgomery, Jr., J. E. Peralta, 
 F. Ogliaro, M. J. Bearpark, J. J. Heyd, E. N. Brothers, K. N. Kudin, 
 V. N. Staroverov, T. A. Keith, R. Kobayashi, J. Normand, 
 K. Raghavachari, A. P. Rendell, J. C. Burant, S. S. Iyengar, 
 J. Tomasi, M. Cossi, J. M. Millam, M. Klene, C. Adamo, R. Cammi, 
 J. W. Ochterski, R. L. Martin, K. Morokuma, O. Farkas, 
 J. B. Foresman, and D. J. Fox, Gaussian, Inc., Wallingford CT, 2019.
 
 ******************************************
 Gaussian 16:  ES64L-G16RevC.01  3-Jul-2019
                 8-Feb-2023 
 ******************************************
 %nproc=4
 Will use up to    4 processors via shared memory.
 %mem=5760MB
 %chk=gaussian_63_water_wb97_ptz.chk
 ------------------------------------
 #P wB97XD/6-311g** scf(maxcycle=200)
 ------------------------------------
 1/38=1,172=1/1;
 2/12=2,17=6,18=5,40=1/2;
 3/5=4,6=6,7=101,11=2,25=1,30=1,74=-58/1,2,3;
 4//1;
 5/5=2,7=200,38=5/2;
 6/7=2,8=2,9=2,10=2,28=1/1;
 99/5=1,9=1/99;
 Leave Link    1 at Wed Feb  8 14:40:55 2023, MaxMem=   754974720 cpu:               0.2 elap:               0.1
 (Enter /opt/cluster/programs/g16-c.01/g16/l101.exe)
 --------------
 Gaussian input
 --------------
 Symbolic Z-matrix:
 Charge =  0 Multiplicity = 1
 O                     0.        0.11751   0. 
 H                     0.75785  -0.47015   0. 
 H                    -0.56265  -0.59643   0. 
 
 ITRead=  0  0  0
 MicOpt= -1 -1 -1
 NAtoms=      3 NQM=        3 NQMF=       0 NMMI=      0 NMMIF=      0
                NMic=       0 NMicF=      0.
                    Isotopes and Nuclear Properties:
 (Nuclear quadrupole moments (NQMom) in fm**2, nuclear magnetic moments (NMagM)
  in nuclear magnetons)

  Atom         1           2           3
 IAtWgt=          16           1           1
 AtmWgt=  15.9949146   1.0078250   1.0078250
 NucSpn=           0           1           1
 AtZEff=  -0.0000000  -0.0000000  -0.0000000
 NQMom=    0.0000000   0.0000000   0.0000000
 NMagM=    0.0000000   2.7928460   2.7928460
 AtZNuc=   8.0000000   1.0000000   1.0000000
 Leave Link  101 at Wed Feb  8 14:40:55 2023, MaxMem=   754974720 cpu:               0.8 elap:               0.4
 (Enter /opt/cluster/programs/g16-c.01/g16/l202.exe)
                          Input orientation:                          
 ---------------------------------------------------------------------
 Center     Atomic      Atomic             Coordinates (Angstroms)
 Number     Number       Type             X           Y           Z
 ---------------------------------------------------------------------
      1          8           0        0.000000    0.117510    0.000000
      2          1           0        0.757850   -0.470150    0.000000
      3          1           0       -0.562646   -0.596430    0.000000
 ---------------------------------------------------------------------
                    Distance matrix (angstroms):
                    1          2          3
     1  O    0.000000
     2  H    0.959000   0.000000
     3  H    0.909000   1.326520   0.000000
 Stoichiometry    H2O
 Framework group  CS[SG(H2O)]
 Deg. of freedom     3
 Full point group                 CS      NOp   2
 Largest Abelian subgroup         CS      NOp   2
 Largest concise Abelian subgroup C1      NOp   1
                         Standard orientation:                         
 ---------------------------------------------------------------------
 Center     Atomic      Atomic             Coordinates (Angstroms)
 Number     Number       Type             X           Y           Z
 ---------------------------------------------------------------------
      1          8           0        0.000000    0.131616   -0.000000
      2          1           0        0.662310   -0.561945   -0.000000
      3          1           0       -0.662310   -0.490981    0.000000
 ---------------------------------------------------------------------
 Rotational constants (GHZ):         665.2103399         560.1603105         304.0911992
 Leave Link  202 at Wed Feb  8 14:40:55 2023, MaxMem=   754974720 cpu:               0.1 elap:               0.0
 (Enter /opt/cluster/programs/g16-c.01/g16/l301.exe)
 Standard basis: 6-311G(d,p) (5D, 7F)
 Ernie: Thresh=  0.10000D-02 Tol=  0.10000D-05 Strict=F.
 There are    24 symmetry adapted cartesian basis functions of A'  symmetry.
 There are     7 symmetry adapted cartesian basis functions of A"  symmetry.
 There are    23 symmetry adapted basis functions of A'  symmetry.
 There are     7 symmetry adapted basis functions of A"  symmetry.
    30 basis functions,    48 primitive gaussians,    31 cartesian basis functions
     5 alpha electrons        5 beta electrons
       nuclear repulsion energy         9.4705550460 Hartrees.
 IExCor= 4639 DFT=T Ex+Corr=wB97XD ExCW=0 ScaHFX=  1.000000
 ScaDFX=  1.000000  1.000000  1.000000  1.000000 ScalE2=  1.000000  1.000000
 IRadAn=      5 IRanWt=     -1 IRanGd=            0 ICorTp=0 IEmpDi=121
 HFx  wShort=  0.000000 wLong=  0.200000 cFull=  0.222036 cShort=  0.000000 cLong=  0.777964
 DFx  wShort=  0.000000 wLong=  0.200000 cFull=  0.000000 cShort=  0.000000 cLong=  1.000000
 NAtoms=    3 NActive=    3 NUniq=    3 SFac= 1.00D+00 NAtFMM=   60 NAOKFM=F Big=F
 Integral buffers will be    131072 words long.
 Raffenetti 2 integral format.
 Two-electron integral symmetry is turned on.
 R6Disp:  Grimme-D2 Dispersion energy=       -0.0000126414 Hartrees.
 Nuclear repulsion after empirical dispersion term =        9.4705424045 Hartrees.
 Leave Link  301 at Wed Feb  8 14:40:55 2023, MaxMem=   754974720 cpu:               0.1 elap:               0.1
 (Enter /opt/cluster/programs/g16-c.01/g16/l302.exe)
 NPDir=0 NMtPBC=     1 NCelOv=     1 NCel=       1 NClECP=     1 NCelD=      1
         NCelK=      1 NCelE2=     1 NClLst=     1 CellRange=     0.0.
 One-electron integrals computed using PRISM.
 One-electron integral symmetry used in STVInt
 NBasis=    30 RedAO= T EigKep=  1.59D-02  NBF=    23     7
 NBsUse=    30 1.00D-06 EigRej= -1.00D+00 NBFU=    23     7
 Precomputing XC quadrature grid using
 IXCGrd= 4 IRadAn=           5 IRanWt=          -1 IRanGd=           0 AccXCQ= 0.00D+00.
 Generated NRdTot=       0 NPtTot=           0 NUsed=           0 NTot=          32
 NSgBfM=    31    31    31    31    31 MxSgAt=     3 MxSgA2=     3.
 Leave Link  302 at Wed Feb  8 14:40:56 2023, MaxMem=   754974720 cpu:               0.8 elap:               0.3
 (Enter /opt/cluster/programs/g16-c.01/g16/l303.exe)
 DipDrv:  MaxL=1.
 Leave Link  303 at Wed Feb  8 14:40:56 2023, MaxMem=   754974720 cpu:               0.2 elap:               0.1
 (Enter /opt/cluster/programs/g16-c.01/g16/l401.exe)
 ExpMin= 1.03D-01 ExpMax= 8.59D+03 ExpMxC= 1.30D+03 IAcc=3 IRadAn=         5 AccDes= 0.00D+00
 Harris functional with IExCor= 4639 and IRadAn=       5 diagonalized for initial guess.
 HarFok:  IExCor= 4639 AccDes= 0.00D+00 IRadAn=         5 IDoV= 1 UseB2=F ITyADJ=14
 ICtDFT=  3500011 ScaDFX=  1.000000  1.000000  1.000000  1.000000
 FoFCou: FMM=F IPFlag=           0 FMFlag=      100000 FMFlg1=           0
         NFxFlg=           0 DoJE=T BraDBF=F KetDBF=T FulRan=T
         wScrn=  0.000000 ICntrl=       500 IOpCl=  0 I1Cent=   200000004 NGrid=           0
         NMat0=    1 NMatS0=      1 NMatT0=    0 NMatD0=    1 NMtDS0=    0 NMtDT0=    0
 Petite list used in FoFCou.
 Harris En= -73.5991910676853    
 JPrj=0 DoOrth=F DoCkMO=F.
 Initial guess orbital symmetries:
       Occupied  (A') (A') (A') (A') (A")
       Virtual   (A') (A') (A') (A') (A") (A') (A') (A') (A') (A")
                 (A") (A') (A') (A') (A') (A') (A") (A") (A') (A')
                 (A') (A") (A') (A') (A')
 The electronic state of the initial guess is 1-A'.
 Leave Link  401 at Wed Feb  8 14:40:57 2023, MaxMem=   754974720 cpu:               2.4 elap:               1.2
 (Enter /opt/cluster/programs/g16-c.01/g16/l502.exe)
 Keep R1 ints in memory in symmetry-blocked form, NReq=3688183.
 FoFCou: FMM=F IPFlag=           0 FMFlag=           0 FMFlg1=           0
         NFxFlg=           0 DoJE=F BraDBF=F KetDBF=F FulRan=T
         wScrn=  0.000000 ICntrl=       600 IOpCl=  0 I1Cent=           0 NGrid=           0
         NMat0=    1 NMatS0=    465 NMatT0=    0 NMatD0=    1 NMtDS0=    0 NMtDT0=    0
 Petite list used in FoFCou.
 Closed shell SCF:
 Using DIIS extrapolation, IDIIS=  1040.
 NGot=   754974720 LenX=   754911268 LenY=   754909866
 Requested convergence on RMS density matrix=1.00D-08 within 200 cycles.
 Requested convergence on MAX density matrix=1.00D-06.
 Requested convergence on             energy=1.00D-06.
 No special actions if energy rises.
 Integral accuracy reduced to 1.0D-05 until final iterations.

 Cycle   1  Pass 0  IDiag  1:
 E= -76.4049169537063    
 DIIS: error= 6.98D-02 at cycle   1 NSaved=   1.
 NSaved= 1 IEnMin= 1 EnMin= -76.4049169537063     IErMin= 1 ErrMin= 6.98D-02
 ErrMax= 6.98D-02  0.00D+00 EMaxC= 1.00D-01 BMatC= 1.28D-01 BMatP= 1.28D-01
 IDIUse=3 WtCom= 3.02D-01 WtEn= 6.98D-01
 Coeff-Com:  0.100D+01
 Coeff-En:   0.100D+01
 Coeff:      0.100D+01
 Gap=     0.495 Goal=   None    Shift=    0.000
 GapD=    0.495 DampG=2.000 DampE=0.500 DampFc=1.0000 IDamp=-1.
 RMSDP=2.83D-03 MaxDP=2.47D-02              OVMax= 3.77D-02

 Cycle   2  Pass 0  IDiag  1:
 E= -76.4143402319783     Delta-E=       -0.009423278272 Rises=F Damp=F
 DIIS: error= 7.82D-03 at cycle   2 NSaved=   2.
 NSaved= 2 IEnMin= 2 EnMin= -76.4143402319783     IErMin= 2 ErrMin= 7.82D-03
 ErrMax= 7.82D-03  0.00D+00 EMaxC= 1.00D-01 BMatC= 1.22D-03 BMatP= 1.28D-01
 IDIUse=3 WtCom= 9.22D-01 WtEn= 7.82D-02
 Coeff-Com:  0.447D-01 0.955D+00
 Coeff-En:   0.000D+00 0.100D+01
 Coeff:      0.412D-01 0.959D+00
 Gap=     0.521 Goal=   None    Shift=    0.000
 RMSDP=1.05D-03 MaxDP=1.53D-02 DE=-9.42D-03 OVMax= 1.28D-02

 Cycle   3  Pass 0  IDiag  1:
 E= -76.4145694751327     Delta-E=       -0.000229243154 Rises=F Damp=F
 DIIS: error= 6.19D-03 at cycle   3 NSaved=   3.
 NSaved= 3 IEnMin= 3 EnMin= -76.4145694751327     IErMin= 3 ErrMin= 6.19D-03
 ErrMax= 6.19D-03  0.00D+00 EMaxC= 1.00D-01 BMatC= 8.20D-04 BMatP= 1.22D-03
 IDIUse=3 WtCom= 9.38D-01 WtEn= 6.19D-02
 Coeff-Com:  0.213D-01 0.460D+00 0.519D+00
 Coeff-En:   0.000D+00 0.394D+00 0.606D+00
 Coeff:      0.200D-01 0.456D+00 0.524D+00
 Gap=     0.510 Goal=   None    Shift=    0.000
 RMSDP=4.79D-04 MaxDP=6.59D-03 DE=-2.29D-04 OVMax= 6.41D-03

 Cycle   4  Pass 0  IDiag  1:
 E= -76.4150620915521     Delta-E=       -0.000492616419 Rises=F Damp=F
 DIIS: error= 6.39D-04 at cycle   4 NSaved=   4.
 NSaved= 4 IEnMin= 4 EnMin= -76.4150620915521     IErMin= 4 ErrMin= 6.39D-04
 ErrMax= 6.39D-04  0.00D+00 EMaxC= 1.00D-01 BMatC= 7.13D-06 BMatP= 8.20D-04
 IDIUse=3 WtCom= 9.94D-01 WtEn= 6.39D-03
 Coeff-Com:  0.198D-02 0.569D-01 0.118D+00 0.823D+00
 Coeff-En:   0.000D+00 0.000D+00 0.000D+00 0.100D+01
 Coeff:      0.196D-02 0.566D-01 0.117D+00 0.824D+00
 Gap=     0.511 Goal=   None    Shift=    0.000
 RMSDP=5.30D-05 MaxDP=7.07D-04 DE=-4.93D-04 OVMax= 5.43D-04

 Cycle   5  Pass 0  IDiag  1:
 E= -76.4150665595449     Delta-E=       -0.000004467993 Rises=F Damp=F
 DIIS: error= 5.29D-05 at cycle   5 NSaved=   5.
 NSaved= 5 IEnMin= 5 EnMin= -76.4150665595449     IErMin= 5 ErrMin= 5.29D-05
 ErrMax= 5.29D-05  0.00D+00 EMaxC= 1.00D-01 BMatC= 8.36D-08 BMatP= 7.13D-06
 IDIUse=1 WtCom= 1.00D+00 WtEn= 0.00D+00
 Coeff-Com: -0.740D-03-0.190D-01-0.207D-01-0.132D-01 0.105D+01
 Coeff:     -0.740D-03-0.190D-01-0.207D-01-0.132D-01 0.105D+01
 Gap=     0.511 Goal=   None    Shift=    0.000
 RMSDP=1.40D-05 MaxDP=1.25D-04 DE=-4.47D-06 OVMax= 2.76D-04

 Cycle   6  Pass 0  IDiag  1:
 E= -76.4150667083138     Delta-E=       -0.000000148769 Rises=F Damp=F
 DIIS: error= 1.13D-05 at cycle   6 NSaved=   6.
 NSaved= 6 IEnMin= 6 EnMin= -76.4150667083138     IErMin= 6 ErrMin= 1.13D-05
 ErrMax= 1.13D-05  0.00D+00 EMaxC= 1.00D-01 BMatC= 3.18D-09 BMatP= 8.36D-08
 IDIUse=1 WtCom= 1.00D+00 WtEn= 0.00D+00
 Coeff-Com:  0.129D-03 0.286D-02 0.385D-02-0.112D-01-0.225D+00 0.123D+01
 Coeff:      0.129D-03 0.286D-02 0.385D-02-0.112D-01-0.225D+00 0.123D+01
 Gap=     0.511 Goal=   None    Shift=    0.000
 RMSDP=3.81D-06 MaxDP=4.36D-05 DE=-1.49D-07 OVMax= 7.16D-05

 Initial convergence to 1.0D-05 achieved.  Increase integral accuracy.
 Cycle   7  Pass 1  IDiag  1:
 E= -76.4150615073015     Delta-E=        0.000005201012 Rises=F Damp=F
 DIIS: error= 1.63D-05 at cycle   1 NSaved=   1.
 NSaved= 1 IEnMin= 1 EnMin= -76.4150615073015     IErMin= 1 ErrMin= 1.63D-05
 ErrMax= 1.63D-05  0.00D+00 EMaxC= 1.00D-01 BMatC= 5.87D-09 BMatP= 5.87D-09
 IDIUse=1 WtCom= 1.00D+00 WtEn= 0.00D+00
 Coeff-Com:  0.100D+01
 Coeff:      0.100D+01
 Gap=     0.511 Goal=   None    Shift=    0.000
 RMSDP=3.81D-06 MaxDP=4.36D-05 DE= 5.20D-06 OVMax= 1.92D-05

 Cycle   8  Pass 1  IDiag  1:
 E= -76.4150615109974     Delta-E=       -0.000000003696 Rises=F Damp=F
 DIIS: error= 3.04D-06 at cycle   2 NSaved=   2.
 NSaved= 2 IEnMin= 2 EnMin= -76.4150615109974     IErMin= 2 ErrMin= 3.04D-06
 ErrMax= 3.04D-06  0.00D+00 EMaxC= 1.00D-01 BMatC= 2.53D-10 BMatP= 5.87D-09
 IDIUse=1 WtCom= 1.00D+00 WtEn= 0.00D+00
 Coeff-Com:  0.170D-02 0.998D+00
 Coeff:      0.170D-02 0.998D+00
 Gap=     0.511 Goal=   None    Shift=    0.000
 RMSDP=5.58D-07 MaxDP=5.94D-06 DE=-3.70D-09 OVMax= 7.13D-06

 Cycle   9  Pass 1  IDiag  1:
 E= -76.4150615110430     Delta-E=       -0.000000000046 Rises=F Damp=F
 DIIS: error= 3.12D-06 at cycle   3 NSaved=   3.
 NSaved= 3 IEnMin= 3 EnMin= -76.4150615110430     IErMin= 2 ErrMin= 3.04D-06
 ErrMax= 3.12D-06  0.00D+00 EMaxC= 1.00D-01 BMatC= 2.40D-10 BMatP= 2.53D-10
 IDIUse=1 WtCom= 1.00D+00 WtEn= 0.00D+00
 Coeff-Com: -0.381D-01 0.513D+00 0.525D+00
 Coeff:     -0.381D-01 0.513D+00 0.525D+00
 Gap=     0.511 Goal=   None    Shift=    0.000
 RMSDP=2.42D-07 MaxDP=3.53D-06 DE=-4.56D-11 OVMax= 3.22D-06

 Cycle  10  Pass 1  IDiag  1:
 E= -76.4150615111888     Delta-E=       -0.000000000146 Rises=F Damp=F
 DIIS: error= 9.10D-08 at cycle   4 NSaved=   4.
 NSaved= 4 IEnMin= 4 EnMin= -76.4150615111888     IErMin= 4 ErrMin= 9.10D-08
 ErrMax= 9.10D-08  0.00D+00 EMaxC= 1.00D-01 BMatC= 3.08D-13 BMatP= 2.40D-10
 IDIUse=1 WtCom= 1.00D+00 WtEn= 0.00D+00
 Coeff-Com:  0.386D-03-0.372D-01-0.309D-01 0.107D+01
 Coeff:      0.386D-03-0.372D-01-0.309D-01 0.107D+01
 Gap=     0.511 Goal=   None    Shift=    0.000
 RMSDP=3.80D-08 MaxDP=3.96D-07 DE=-1.46D-10 OVMax= 6.95D-07

 Cycle  11  Pass 1  IDiag  1:
 E= -76.4150615111897     Delta-E=       -0.000000000001 Rises=F Damp=F
 DIIS: error= 3.08D-08 at cycle   5 NSaved=   5.
 NSaved= 5 IEnMin= 5 EnMin= -76.4150615111897     IErMin= 5 ErrMin= 3.08D-08
 ErrMax= 3.08D-08  0.00D+00 EMaxC= 1.00D-01 BMatC= 2.38D-14 BMatP= 3.08D-13
 IDIUse=1 WtCom= 1.00D+00 WtEn= 0.00D+00
 Coeff-Com:  0.125D-02-0.120D-01-0.730D-02-0.128D+00 0.115D+01
 Coeff:      0.125D-02-0.120D-01-0.730D-02-0.128D+00 0.115D+01
 Gap=     0.511 Goal=   None    Shift=    0.000
 RMSDP=1.18D-08 MaxDP=1.29D-07 DE=-9.09D-13 OVMax= 2.24D-07

 Cycle  12  Pass 1  IDiag  1:
 E= -76.4150615111897     Delta-E=       -0.000000000000 Rises=F Damp=F
 DIIS: error= 6.52D-09 at cycle   6 NSaved=   6.
 NSaved= 6 IEnMin= 6 EnMin= -76.4150615111897     IErMin= 6 ErrMin= 6.52D-09
 ErrMax= 6.52D-09  0.00D+00 EMaxC= 1.00D-01 BMatC= 9.40D-16 BMatP= 2.38D-14
 IDIUse=1 WtCom= 1.00D+00 WtEn= 0.00D+00
 Coeff-Com:  0.166D-04 0.129D-02 0.190D-02-0.438D-01-0.111D-01 0.105D+01
 Coeff:      0.166D-04 0.129D-02 0.190D-02-0.438D-01-0.111D-01 0.105D+01
 Gap=     0.511 Goal=   None    Shift=    0.000
 RMSDP=2.04D-09 MaxDP=1.92D-08 DE=-5.68D-14 OVMax= 4.18D-08

 SCF Done:  E(RwB97XD) =  -76.4150615112     A.U. after   12 cycles
            NFock= 12  Conv=0.20D-08     -V/T= 2.0000
 KE= 7.641860193072D+01 PE=-2.000921674759D+02 EE= 3.778796162947D+01
 Leave Link  502 at Wed Feb  8 14:41:02 2023, MaxMem=   754974720 cpu:               9.7 elap:               4.9
 (Enter /opt/cluster/programs/g16-c.01/g16/l601.exe)
 Copying SCF densities to generalized density rwf, IOpCl= 0 IROHF=0.

 **********************************************************************

            Population analysis using the SCF Density.

 **********************************************************************

 Orbital symmetries:
       Occupied  (A') (A') (A') (A') (A")
       Virtual   (A') (A') (A') (A') (A") (A') (A') (A') (A') (A")
                 (A") (A') (A') (A') (A') (A') (A") (A") (A') (A')
                 (A') (A") (A') (A') (A')
 The electronic state is 1-A'.
 Alpha  occ. eigenvalues --  -19.22811  -1.12775  -0.59159  -0.49364  -0.39238
 Alpha virt. eigenvalues --    0.11867   0.19828   0.45649   0.55188   0.85263
 Alpha virt. eigenvalues --    0.85529   0.96260   1.15652   1.17178   1.41058
 Alpha virt. eigenvalues --    1.46638   1.86847   1.99220   2.21153   2.41388
 Alpha virt. eigenvalues --    2.62726   3.21486   3.29373   3.40125   3.66178
 Alpha virt. eigenvalues --    4.01280   4.88236   5.41828   5.68842  50.01238
          Condensed to atoms (all electrons):
               1          2          3
     1  O    7.831618   0.298495   0.306952
     2  H    0.298495   0.518927  -0.034687
     3  H    0.306952  -0.034687   0.507933
 Mulliken charges:
               1
     1  O   -0.437066
     2  H    0.217264
     3  H    0.219802
 Sum of Mulliken charges =  -0.00000
 Mulliken charges with hydrogens summed into heavy atoms:
               1
     1  O   -0.000000
 Electronic spatial extent (au):  <R**2>=             18.7065
 Charge=             -0.0000 electrons
 Dipole moment (field-independent basis, Debye):
    X=             -0.0467    Y=             -2.2455    Z=              0.0000  Tot=              2.2460
 Quadrupole moment (field-independent basis, Debye-Ang):
   XX=             -4.8509   YY=             -5.6514   ZZ=             -7.1044
   XY=             -0.0828   XZ=              0.0000   YZ=              0.0000
 Traceless Quadrupole moment (field-independent basis, Debye-Ang):
   XX=              1.0180   YY=              0.2175   ZZ=             -1.2355
   XY=             -0.0828   XZ=              0.0000   YZ=              0.0000
 Octapole moment (field-independent basis, Debye-Ang**2):
  XXX=             -0.1033  YYY=             -1.4916  ZZZ=              0.0000  XYY=              0.0542
  XXY=             -1.0931  XXZ=              0.0000  XZZ=             -0.0353  YZZ=             -0.3829
  YYZ=              0.0000  XYZ=              0.0000
 Hexadecapole moment (field-independent basis, Debye-Ang**3):
 XXXX=             -5.9624 YYYY=             -6.2323 ZZZZ=             -5.1502 XXXY=              0.0586
 XXXZ=              0.0000 YYYX=              0.0110 YYYZ=              0.0000 ZZZX=              0.0000
 ZZZY=              0.0000 XXYY=             -1.6469 XXZZ=             -2.0074 YYZZ=             -1.9827
 XXYZ=              0.0000 YYXZ=              0.0000 ZZXY=              0.0346
 N-N= 9.470542404529D+00 E-N=-2.000921675347D+02  KE= 7.641860193072D+01
 Symmetry A'   KE= 7.177281811389D+01
 Symmetry A"   KE= 4.645783816831D+00
 No NMR shielding tensors so no spin-rotation constants.
 Leave Link  601 at Wed Feb  8 14:41:02 2023, MaxMem=   754974720 cpu:               1.0 elap:               0.4
 (Enter /opt/cluster/programs/g16-c.01/g16/l9999.exe)
 Unable to Open any file for archive entry.
 1\1\GINC-NODE64\SP\RwB97XD\6-311G(d,p)\H2O1\BOITTIER\08-Feb-2023\0\\#P
  wB97XD/6-311g** scf(maxcycle=200)\\Gaussian input\\0,1\O,0,0.,0.11751
 ,0.\H,0,0.7578497316,-0.4701504329,0.\H,0,-0.5626457724,-0.596430288,0
 .\\Version=ES64L-G16RevC.01\State=1-A'\HF=-76.4150615\RMSD=2.039e-09\D
 ipole=0.1128531,-0.8764031,0.\Quadrupole=0.7618231,0.1567693,-0.918592
 4,0.0284724,0.,0.\PG=CS [SG(H2O1)]\\@
 The archive entry for this job was punched.


 THE PROGRESS OF RIVERS TO THE SEA IS NOT AS RAPID
 AS THAT OF MAN TO ERROR.
                                              -- VOLTAIRE
 Job cpu time:       0 days  0 hours  0 minutes 15.6 seconds.
 Elapsed time:       0 days  0 hours  0 minutes  7.4 seconds.
 File lengths (MBytes):  RWF=      6 Int=      0 D2E=      0 Chk=      1 Scr=      1
 Normal termination of Gaussian 16 at Wed Feb  8 14:41:02 2023.
