 Entering Gaussian System, Link 0=/opt/cluster/programs/g16-c.01/g16/g16
 Input=/scratch/boittier/jobs/tmp.7262147/gaussian_15_water_ccsdt_adz.com
 Output=/scratch/boittier/jobs/tmp.7262147/gaussian_15_water_ccsdt_adz.out
 Initial command:
 /opt/cluster/programs/g16-c.01/g16/l1.exe "/scratch/boittier/jobs/tmp.7262147/Gau-101397.inp" -scrdir="/scratch/boittier/jobs/tmp.7262147/"
 Entering Link 1 = /opt/cluster/programs/g16-c.01/g16/l1.exe PID=    101398.
  
 Copyright (c) 1988-2019, Gaussian, Inc.  All Rights Reserved.
  
 This is part of the Gaussian(R) 16 program.  It is based on
 the Gaussian(R) 09 system (copyright 2009, Gaussian, Inc.),
 the Gaussian(R) 03 system (copyright 2003, Gaussian, Inc.),
 the Gaussian(R) 98 system (copyright 1998, Gaussian, Inc.),
 the Gaussian(R) 94 system (copyright 1995, Gaussian, Inc.),
 the Gaussian 92(TM) system (copyright 1992, Gaussian, Inc.),
 the Gaussian 90(TM) system (copyright 1990, Gaussian, Inc.),
 the Gaussian 88(TM) system (copyright 1988, Gaussian, Inc.),
 the Gaussian 86(TM) system (copyright 1986, Carnegie Mellon
 University), and the Gaussian 82(TM) system (copyright 1983,
 Carnegie Mellon University). Gaussian is a federally registered
 trademark of Gaussian, Inc.
  
 This software contains proprietary and confidential information,
 including trade secrets, belonging to Gaussian, Inc.
  
 This software is provided under written license and may be
 used, copied, transmitted, or stored only in accord with that
 written license.
  
 The following legend is applicable only to US Government
 contracts under FAR:
  
                    RESTRICTED RIGHTS LEGEND
  
 Use, reproduction and disclosure by the US Government is
 subject to restrictions as set forth in subparagraphs (a)
 and (c) of the Commercial Computer Software - Restricted
 Rights clause in FAR 52.227-19.
  
 Gaussian, Inc.
 340 Quinnipiac St., Bldg. 40, Wallingford CT 06492
  
  
 ---------------------------------------------------------------
 Warning -- This program may not be used in any manner that
 competes with the business of Gaussian, Inc. or will provide
 assistance to any competitor of Gaussian, Inc.  The licensee
 of this program is prohibited from giving any competitor of
 Gaussian, Inc. access to this program.  By using this program,
 the user acknowledges that Gaussian, Inc. is engaged in the
 business of creating and licensing software in the field of
 computational chemistry and represents and warrants to the
 licensee that it is not a competitor of Gaussian, Inc. and that
 it will not use this program in any manner prohibited above.
 ---------------------------------------------------------------
  

 Cite this work as:
 Gaussian 16, Revision C.01,
 M. J. Frisch, G. W. Trucks, H. B. Schlegel, G. E. Scuseria, 
 M. A. Robb, J. R. Cheeseman, G. Scalmani, V. Barone, 
 G. A. Petersson, H. Nakatsuji, X. Li, M. Caricato, A. V. Marenich, 
 J. Bloino, B. G. Janesko, R. Gomperts, B. Mennucci, H. P. Hratchian, 
 J. V. Ortiz, A. F. Izmaylov, J. L. Sonnenberg, D. Williams-Young, 
 F. Ding, F. Lipparini, F. Egidi, J. Goings, B. Peng, A. Petrone, 
 T. Henderson, D. Ranasinghe, V. G. Zakrzewski, J. Gao, N. Rega, 
 G. Zheng, W. Liang, M. Hada, M. Ehara, K. Toyota, R. Fukuda, 
 J. Hasegawa, M. Ishida, T. Nakajima, Y. Honda, O. Kitao, H. Nakai, 
 T. Vreven, K. Throssell, J. A. Montgomery, Jr., J. E. Peralta, 
 F. Ogliaro, M. J. Bearpark, J. J. Heyd, E. N. Brothers, K. N. Kudin, 
 V. N. Staroverov, T. A. Keith, R. Kobayashi, J. Normand, 
 K. Raghavachari, A. P. Rendell, J. C. Burant, S. S. Iyengar, 
 J. Tomasi, M. Cossi, J. M. Millam, M. Klene, C. Adamo, R. Cammi, 
 J. W. Ochterski, R. L. Martin, K. Morokuma, O. Farkas, 
 J. B. Foresman, and D. J. Fox, Gaussian, Inc., Wallingford CT, 2019.
 
 ******************************************
 Gaussian 16:  ES64L-G16RevC.01  3-Jul-2019
                 8-Feb-2023 
 ******************************************
 %nproc=4
 Will use up to    4 processors via shared memory.
 %mem=5760MB
 %chk=gaussian_15_water_ccsdt_adz.chk
 ----------------------------------------
 #P CCSD(T)/aug-cc-pVDZ scf(maxcycle=200)
 ----------------------------------------
 1/38=1,172=1/1;
 2/12=2,17=6,18=5,40=1/2;
 3/5=16,7=10,11=9,25=1,30=1/1,2,3;
 4//1;
 5/5=2,7=200,38=5/2;
 8/6=4,9=120000,10=1/1,4;
 9/5=7,14=2/13;
 6/7=2,8=2,9=2,10=2/1;
 99/5=1,9=1/99;
 Leave Link    1 at Wed Feb  8 14:47:10 2023, MaxMem=   754974720 cpu:               0.1 elap:               0.0
 (Enter /opt/cluster/programs/g16-c.01/g16/l101.exe)
 --------------
 Gaussian input
 --------------
 Symbolic Z-matrix:
 Charge =  0 Multiplicity = 1
 O                     0.        0.11751   0. 
 H                     0.71834  -0.43951   0. 
 H                    -0.80439  -0.30586   0. 
 
 ITRead=  0  0  0
 MicOpt= -1 -1 -1
 NAtoms=      3 NQM=        3 NQMF=       0 NMMI=      0 NMMIF=      0
                NMic=       0 NMicF=      0.
                    Isotopes and Nuclear Properties:
 (Nuclear quadrupole moments (NQMom) in fm**2, nuclear magnetic moments (NMagM)
  in nuclear magnetons)

  Atom         1           2           3
 IAtWgt=          16           1           1
 AtmWgt=  15.9949146   1.0078250   1.0078250
 NucSpn=           0           1           1
 AtZEff=  -0.0000000  -0.0000000  -0.0000000
 NQMom=    0.0000000   0.0000000   0.0000000
 NMagM=    0.0000000   2.7928460   2.7928460
 AtZNuc=   8.0000000   1.0000000   1.0000000
 Leave Link  101 at Wed Feb  8 14:47:10 2023, MaxMem=   754974720 cpu:               0.6 elap:               0.2
 (Enter /opt/cluster/programs/g16-c.01/g16/l202.exe)
                          Input orientation:                          
 ---------------------------------------------------------------------
 Center     Atomic      Atomic             Coordinates (Angstroms)
 Number     Number       Type             X           Y           Z
 ---------------------------------------------------------------------
      1          8           0        0.000000    0.117510    0.000000
      2          1           0        0.718337   -0.439511    0.000000
      3          1           0       -0.804388   -0.305858    0.000000
 ---------------------------------------------------------------------
                    Distance matrix (angstroms):
                    1          2          3
     1  O    0.000000
     2  H    0.909000   0.000000
     3  H    0.909000   1.528580   0.000000
 Stoichiometry    H2O
 Framework group  C2V[C2(O),SGV(H2)]
 Deg. of freedom     2
 Full point group                 C2V     NOp   4
 Largest Abelian subgroup         C2V     NOp   4
 Largest concise Abelian subgroup C2      NOp   2
                         Standard orientation:                         
 ---------------------------------------------------------------------
 Center     Atomic      Atomic             Coordinates (Angstroms)
 Number     Number       Type             X           Y           Z
 ---------------------------------------------------------------------
      1          8           0        0.000000   -0.000000    0.098416
      2          1           0        0.000000    0.764290   -0.393663
      3          1           0       -0.000000   -0.764290   -0.393663
 ---------------------------------------------------------------------
 Rotational constants (GHZ):        1165.9427508         429.2258849         313.7303466
 Leave Link  202 at Wed Feb  8 14:47:10 2023, MaxMem=   754974720 cpu:               0.0 elap:               0.0
 (Enter /opt/cluster/programs/g16-c.01/g16/l301.exe)
 Standard basis: Aug-CC-pVDZ (5D, 7F)
 Ernie: Thresh=  0.10000D-02 Tol=  0.10000D-05 Strict=F.
 Ernie:  2 primitive shells out of 39 were deleted.
 There are    20 symmetry adapted cartesian basis functions of A1  symmetry.
 There are     4 symmetry adapted cartesian basis functions of A2  symmetry.
 There are     7 symmetry adapted cartesian basis functions of B1  symmetry.
 There are    12 symmetry adapted cartesian basis functions of B2  symmetry.
 There are    18 symmetry adapted basis functions of A1  symmetry.
 There are     4 symmetry adapted basis functions of A2  symmetry.
 There are     7 symmetry adapted basis functions of B1  symmetry.
 There are    12 symmetry adapted basis functions of B2  symmetry.
    41 basis functions,    65 primitive gaussians,    43 cartesian basis functions
     5 alpha electrons        5 beta electrons
       nuclear repulsion energy         9.6606391938 Hartrees.
 IExCor=    0 DFT=F Ex=HF Corr=None ExCW=0 ScaHFX=  1.000000
 ScaDFX=  1.000000  1.000000  1.000000  1.000000 ScalE2=  1.000000  1.000000
 IRadAn=      5 IRanWt=     -1 IRanGd=            0 ICorTp=0 IEmpDi=  4
 NAtoms=    3 NActive=    3 NUniq=    2 SFac= 2.25D+00 NAtFMM=   60 NAOKFM=F Big=F
 Integral buffers will be    131072 words long.
 Raffenetti 1 integral format.
 Two-electron integral symmetry is turned on.
 Leave Link  301 at Wed Feb  8 14:47:10 2023, MaxMem=   754974720 cpu:               0.2 elap:               0.0
 (Enter /opt/cluster/programs/g16-c.01/g16/l302.exe)
 NPDir=0 NMtPBC=     1 NCelOv=     1 NCel=       1 NClECP=     1 NCelD=      1
         NCelK=      1 NCelE2=     1 NClLst=     1 CellRange=     0.0.
 One-electron integrals computed using PRISM.
 One-electron integral symmetry used in STVInt
 NBasis=    41 RedAO= T EigKep=  2.50D-03  NBF=    18     4     7    12
 NBsUse=    41 1.00D-06 EigRej= -1.00D+00 NBFU=    18     4     7    12
 Leave Link  302 at Wed Feb  8 14:47:10 2023, MaxMem=   754974720 cpu:               0.5 elap:               0.1
 (Enter /opt/cluster/programs/g16-c.01/g16/l303.exe)
 DipDrv:  MaxL=1.
 Leave Link  303 at Wed Feb  8 14:47:10 2023, MaxMem=   754974720 cpu:               0.2 elap:               0.1
 (Enter /opt/cluster/programs/g16-c.01/g16/l401.exe)
 ExpMin= 2.97D-02 ExpMax= 1.17D+04 ExpMxC= 4.01D+02 IAcc=3 IRadAn=         5 AccDes= 0.00D+00
 Harris functional with IExCor=  205 and IRadAn=       5 diagonalized for initial guess.
 HarFok:  IExCor=  205 AccDes= 0.00D+00 IRadAn=         5 IDoV= 1 UseB2=F ITyADJ=14
 ICtDFT=  3500011 ScaDFX=  1.000000  1.000000  1.000000  1.000000
 FoFCou: FMM=F IPFlag=           0 FMFlag=      100000 FMFlg1=           0
         NFxFlg=           0 DoJE=T BraDBF=F KetDBF=T FulRan=T
         wScrn=  0.000000 ICntrl=       500 IOpCl=  0 I1Cent=   200000004 NGrid=           0
         NMat0=    1 NMatS0=      1 NMatT0=    0 NMatD0=    1 NMtDS0=    0 NMtDT0=    0
 Petite list used in FoFCou.
 Harris En= -76.1234436464263    
 JPrj=0 DoOrth=F DoCkMO=F.
 Initial guess orbital symmetries:
       Occupied  (A1) (A1) (B2) (A1) (B1)
       Virtual   (A1) (B2) (A1) (B1) (A1) (B2) (B2) (A1) (A2) (A1)
                 (B1) (B2) (A1) (B2) (B2) (A1) (B1) (A1) (A2) (A1)
                 (B1) (B2) (A1) (B2) (A2) (B1) (B2) (A1) (A1) (B2)
                 (A1) (B1) (A1) (A2) (A1) (B2)
 The electronic state of the initial guess is 1-A1.
 Leave Link  401 at Wed Feb  8 14:47:10 2023, MaxMem=   754974720 cpu:               0.8 elap:               0.2
 (Enter /opt/cluster/programs/g16-c.01/g16/l502.exe)
 Keep R1 ints in memory in symmetry-blocked form, NReq=1211530.
 FoFCou: FMM=F IPFlag=           0 FMFlag=           0 FMFlg1=           0
         NFxFlg=           0 DoJE=F BraDBF=F KetDBF=F FulRan=T
         wScrn=  0.000000 ICntrl=       600 IOpCl=  0 I1Cent=           0 NGrid=           0
         NMat0=    1 NMatS0=    861 NMatT0=    0 NMatD0=    1 NMtDS0=    0 NMtDT0=    0
 Petite list used in FoFCou.
 Closed shell SCF:
 Using DIIS extrapolation, IDIIS=  1040.
 NGot=   754974720 LenX=   754868251 LenY=   754865961
 Requested convergence on RMS density matrix=1.00D-08 within 200 cycles.
 Requested convergence on MAX density matrix=1.00D-06.
 Requested convergence on             energy=1.00D-06.
 No special actions if energy rises.

 Cycle   1  Pass 1  IDiag  1:
 E= -75.9545393151134    
 DIIS: error= 5.38D-02 at cycle   1 NSaved=   1.
 NSaved= 1 IEnMin= 1 EnMin= -75.9545393151134     IErMin= 1 ErrMin= 5.38D-02
 ErrMax= 5.38D-02  0.00D+00 EMaxC= 1.00D-01 BMatC= 1.29D-01 BMatP= 1.29D-01
 IDIUse=3 WtCom= 4.62D-01 WtEn= 5.38D-01
 Coeff-Com:  0.100D+01
 Coeff-En:   0.100D+01
 Coeff:      0.100D+01
 Gap=     0.453 Goal=   None    Shift=    0.000
 GapD=    0.453 DampG=2.000 DampE=0.500 DampFc=1.0000 IDamp=-1.
 RMSDP=6.58D-03 MaxDP=1.25D-01              OVMax= 1.23D-01

 Cycle   2  Pass 1  IDiag  1:
 E= -76.0060536184602     Delta-E=       -0.051514303347 Rises=F Damp=F
 DIIS: error= 3.88D-02 at cycle   2 NSaved=   2.
 NSaved= 2 IEnMin= 2 EnMin= -76.0060536184602     IErMin= 2 ErrMin= 3.88D-02
 ErrMax= 3.88D-02  0.00D+00 EMaxC= 1.00D-01 BMatC= 4.58D-02 BMatP= 1.29D-01
 IDIUse=3 WtCom= 6.12D-01 WtEn= 3.88D-01
 Coeff-Com:  0.363D+00 0.637D+00
 Coeff-En:   0.171D+00 0.829D+00
 Coeff:      0.289D+00 0.711D+00
 Gap=     0.568 Goal=   None    Shift=    0.000
 RMSDP=2.94D-03 MaxDP=5.50D-02 DE=-5.15D-02 OVMax= 5.87D-02

 Cycle   3  Pass 1  IDiag  1:
 E= -76.0367281770753     Delta-E=       -0.030674558615 Rises=F Damp=F
 DIIS: error= 5.22D-03 at cycle   3 NSaved=   3.
 NSaved= 3 IEnMin= 3 EnMin= -76.0367281770753     IErMin= 3 ErrMin= 5.22D-03
 ErrMax= 5.22D-03  0.00D+00 EMaxC= 1.00D-01 BMatC= 1.27D-03 BMatP= 4.58D-02
 IDIUse=3 WtCom= 9.48D-01 WtEn= 5.22D-02
 Coeff-Com: -0.358D-01 0.996D-01 0.936D+00
 Coeff-En:   0.000D+00 0.000D+00 0.100D+01
 Coeff:     -0.339D-01 0.944D-01 0.940D+00
 Gap=     0.547 Goal=   None    Shift=    0.000
 RMSDP=4.87D-04 MaxDP=8.27D-03 DE=-3.07D-02 OVMax= 8.63D-03

 Cycle   4  Pass 1  IDiag  1:
 E= -76.0376417226426     Delta-E=       -0.000913545567 Rises=F Damp=F
 DIIS: error= 4.64D-04 at cycle   4 NSaved=   4.
 NSaved= 4 IEnMin= 4 EnMin= -76.0376417226426     IErMin= 4 ErrMin= 4.64D-04
 ErrMax= 4.64D-04  0.00D+00 EMaxC= 1.00D-01 BMatC= 5.35D-06 BMatP= 1.27D-03
 IDIUse=3 WtCom= 9.95D-01 WtEn= 4.64D-03
 Coeff-Com:  0.879D-02-0.439D-01-0.320D+00 0.136D+01
 Coeff-En:   0.000D+00 0.000D+00 0.000D+00 0.100D+01
 Coeff:      0.875D-02-0.437D-01-0.319D+00 0.135D+01
 Gap=     0.548 Goal=   None    Shift=    0.000
 RMSDP=9.89D-05 MaxDP=7.77D-04 DE=-9.14D-04 OVMax= 2.02D-03

 Cycle   5  Pass 1  IDiag  1:
 E= -76.0376541157235     Delta-E=       -0.000012393081 Rises=F Damp=F
 DIIS: error= 1.18D-04 at cycle   5 NSaved=   5.
 NSaved= 5 IEnMin= 5 EnMin= -76.0376541157235     IErMin= 5 ErrMin= 1.18D-04
 ErrMax= 1.18D-04  0.00D+00 EMaxC= 1.00D-01 BMatC= 1.93D-07 BMatP= 5.35D-06
 IDIUse=3 WtCom= 9.99D-01 WtEn= 1.18D-03
 Coeff-Com: -0.909D-03 0.674D-02 0.477D-01-0.354D+00 0.130D+01
 Coeff-En:   0.000D+00 0.000D+00 0.000D+00 0.000D+00 0.100D+01
 Coeff:     -0.908D-03 0.674D-02 0.477D-01-0.353D+00 0.130D+01
 Gap=     0.548 Goal=   None    Shift=    0.000
 RMSDP=2.21D-05 MaxDP=2.66D-04 DE=-1.24D-05 OVMax= 5.02D-04

 Cycle   6  Pass 1  IDiag  1:
 E= -76.0376546886088     Delta-E=       -0.000000572885 Rises=F Damp=F
 DIIS: error= 1.89D-05 at cycle   6 NSaved=   6.
 NSaved= 6 IEnMin= 6 EnMin= -76.0376546886088     IErMin= 6 ErrMin= 1.89D-05
 ErrMax= 1.89D-05  0.00D+00 EMaxC= 1.00D-01 BMatC= 5.75D-09 BMatP= 1.93D-07
 IDIUse=1 WtCom= 1.00D+00 WtEn= 0.00D+00
 Coeff-Com: -0.183D-03 0.666D-03 0.464D-02 0.955D-03-0.208D+00 0.120D+01
 Coeff:     -0.183D-03 0.666D-03 0.464D-02 0.955D-03-0.208D+00 0.120D+01
 Gap=     0.548 Goal=   None    Shift=    0.000
 RMSDP=3.02D-06 MaxDP=5.34D-05 DE=-5.73D-07 OVMax= 8.88D-05

 Cycle   7  Pass 1  IDiag  1:
 E= -76.0376547061375     Delta-E=       -0.000000017529 Rises=F Damp=F
 DIIS: error= 5.08D-06 at cycle   7 NSaved=   7.
 NSaved= 7 IEnMin= 7 EnMin= -76.0376547061375     IErMin= 7 ErrMin= 5.08D-06
 ErrMax= 5.08D-06  0.00D+00 EMaxC= 1.00D-01 BMatC= 3.43D-10 BMatP= 5.75D-09
 IDIUse=1 WtCom= 1.00D+00 WtEn= 0.00D+00
 Coeff-Com:  0.111D-03-0.612D-03-0.443D-02 0.220D-01-0.122D-01-0.344D+00
 Coeff-Com:  0.134D+01
 Coeff:      0.111D-03-0.612D-03-0.443D-02 0.220D-01-0.122D-01-0.344D+00
 Coeff:      0.134D+01
 Gap=     0.548 Goal=   None    Shift=    0.000
 RMSDP=6.84D-07 MaxDP=1.38D-05 DE=-1.75D-08 OVMax= 2.02D-05

 Cycle   8  Pass 1  IDiag  1:
 E= -76.0376547070570     Delta-E=       -0.000000000920 Rises=F Damp=F
 DIIS: error= 6.49D-07 at cycle   8 NSaved=   8.
 NSaved= 8 IEnMin= 8 EnMin= -76.0376547070570     IErMin= 8 ErrMin= 6.49D-07
 ErrMax= 6.49D-07  0.00D+00 EMaxC= 1.00D-01 BMatC= 9.37D-12 BMatP= 3.43D-10
 IDIUse=1 WtCom= 1.00D+00 WtEn= 0.00D+00
 Coeff-Com: -0.206D-04 0.127D-03 0.954D-03-0.587D-02 0.107D-01 0.516D-01
 Coeff-Com: -0.375D+00 0.132D+01
 Coeff:     -0.206D-04 0.127D-03 0.954D-03-0.587D-02 0.107D-01 0.516D-01
 Coeff:     -0.375D+00 0.132D+01
 Gap=     0.548 Goal=   None    Shift=    0.000
 RMSDP=1.49D-07 MaxDP=2.10D-06 DE=-9.20D-10 OVMax= 2.89D-06

 Cycle   9  Pass 1  IDiag  1:
 E= -76.0376547070802     Delta-E=       -0.000000000023 Rises=F Damp=F
 DIIS: error= 6.65D-08 at cycle   9 NSaved=   9.
 NSaved= 9 IEnMin= 9 EnMin= -76.0376547070802     IErMin= 9 ErrMin= 6.65D-08
 ErrMax= 6.65D-08  0.00D+00 EMaxC= 1.00D-01 BMatC= 9.51D-14 BMatP= 9.37D-12
 IDIUse=1 WtCom= 1.00D+00 WtEn= 0.00D+00
 Coeff-Com:  0.113D-05-0.862D-05-0.726D-04 0.625D-03-0.179D-02-0.204D-02
 Coeff-Com:  0.415D-01-0.224D+00 0.119D+01
 Coeff:      0.113D-05-0.862D-05-0.726D-04 0.625D-03-0.179D-02-0.204D-02
 Coeff:      0.415D-01-0.224D+00 0.119D+01
 Gap=     0.548 Goal=   None    Shift=    0.000
 RMSDP=1.52D-08 MaxDP=1.92D-07 DE=-2.31D-11 OVMax= 2.54D-07

 Cycle  10  Pass 1  IDiag  1:
 E= -76.0376547070803     Delta-E=       -0.000000000000 Rises=F Damp=F
 DIIS: error= 1.60D-08 at cycle  10 NSaved=  10.
 NSaved=10 IEnMin=10 EnMin= -76.0376547070803     IErMin=10 ErrMin= 1.60D-08
 ErrMax= 1.60D-08  0.00D+00 EMaxC= 1.00D-01 BMatC= 3.38D-15 BMatP= 9.51D-14
 IDIUse=1 WtCom= 1.00D+00 WtEn= 0.00D+00
 Coeff-Com: -0.384D-07 0.803D-06 0.960D-05-0.125D-03 0.477D-03-0.229D-03
 Coeff-Com: -0.759D-02 0.515D-01-0.400D+00 0.136D+01
 Coeff:     -0.384D-07 0.803D-06 0.960D-05-0.125D-03 0.477D-03-0.229D-03
 Coeff:     -0.759D-02 0.515D-01-0.400D+00 0.136D+01
 Gap=     0.548 Goal=   None    Shift=    0.000
 RMSDP=2.98D-09 MaxDP=2.69D-08 DE=-1.14D-13 OVMax= 3.92D-08

 SCF Done:  E(RHF) =  -76.0376547071     A.U. after   10 cycles
            NFock= 10  Conv=0.30D-08     -V/T= 1.9989
 KE= 7.612335414660D+01 PE=-1.999338221738D+02 EE= 3.811217412633D+01
 Leave Link  502 at Wed Feb  8 14:47:11 2023, MaxMem=   754974720 cpu:               0.8 elap:               0.2
 (Enter /opt/cluster/programs/g16-c.01/g16/l801.exe)
 Windowed orbitals will be sorted by symmetry type.
 ExpMin= 2.97D-02 ExpMax= 1.17D+04 ExpMxC= 4.01D+02 IAcc=3 IRadAn=         5 AccDes= 0.00D+00
 HarFok:  IExCor=  205 AccDes= 0.00D+00 IRadAn=         5 IDoV=-2 UseB2=F ITyADJ=14
 ICtDFT= 12500011 ScaDFX=  1.000000  1.000000  1.000000  1.000000
 Largest valence mixing into a core orbital is  5.88D-05
 Largest core mixing into a valence orbital is  1.66D-05
 Range of M.O.s used for correlation:     2    41
 NBasis=    41 NAE=     5 NBE=     5 NFC=     1 NFV=     0
 NROrb=     40 NOA=     4 NOB=     4 NVA=    36 NVB=    36
 Leave Link  801 at Wed Feb  8 14:47:11 2023, MaxMem=   754974720 cpu:               0.3 elap:               0.1
 (Enter /opt/cluster/programs/g16-c.01/g16/l804.exe)
 Closed-shell transformation, MDV=   754974720 ITran=4 ISComp=2.
 Unit  1 TFree=         57018 TCopy=        140846.
 Semi-Direct transformation.
 ModeAB=           4 MOrb=             4 LenV=     754769439
 LASXX=        30213 LTotXX=       30213 LenRXX=       63236
 LTotAB=       33023 MaxLAS=      110560 LenRXY=           0
 NonZer=       93449 LenScr=      785920 LnRSAI=      110560
 LnScr1=      785920 LExtra=           0 Total=      1745636
 MaxDsk=          -1 SrtSym=           T ITran=            4
 DoSDTr:  NPSUse=  4
 JobTyp=0 Pass  1:  I=   1 to   4.
 (rs|ai) integrals will be sorted in core.
 Complete sort for first half transformation.
 First half transformation complete.
 Complete sort for second half transformation.
 Second half transformation complete.
 Spin components of T(2) and E(2):
     alpha-alpha T2 =       0.7307581560D-02 E2=     -0.2741093037D-01
     alpha-beta  T2 =       0.4099732005D-01 E2=     -0.1600585494D+00
     beta-beta   T2 =       0.7307581560D-02 E2=     -0.2741093037D-01
 ANorm=    0.1027430038D+01
 E2 =    -0.2148804102D+00 EUMP2 =    -0.76252535117238D+02
 Leave Link  804 at Wed Feb  8 14:47:11 2023, MaxMem=   754974720 cpu:               0.4 elap:               0.1
 (Enter /opt/cluster/programs/g16-c.01/g16/l913.exe)
 CIDS:  MDV=   754974720.
 Frozen-core window:  NFC=   1 NFV=   0.
 IFCWin=0 IBDFC=1 NFBD=     0     0 NFCmp=     0     0 NFFFC=     0     0
 Using DD3R+UMP44R for 1st iteration.
 Using DD4RQ for 2nd and later iterations.
 Keep R2 and R3 ints in memory in symmetry-blocked form, NReq=1214306.
 FoFCou: FMM=F IPFlag=           0 FMFlag=           0 FMFlg1=           0
         NFxFlg=           0 DoJE=F BraDBF=F KetDBF=F FulRan=T
         wScrn=  0.000000 ICntrl=       600 IOpCl=  0 I1Cent=           0 NGrid=           0
         NMat0=    1 NMatS0=    861 NMatT0=    0 NMatD0=    1 NMtDS0=    0 NMtDT0=    0
 Petite list used in FoFCou.
 CIDS: In Core Option IDoMem=           1.
 CCSD(T)
 =======
 Iterations=  50 Convergence= 0.100D-06
 Produce multiple copies of IABC intergrals
 Iteration Nr.   1
 **********************
 DD1Dir will call FoFMem   1 times, MxPair=        20
 NAB=    10 NAA=     0 NBB=     0.
 MP4(R+Q)=  0.23437947D-02
 Maximum subspace dimension=  5
 A-vector RMS=  5.0605370D-03 Max=  1.5720246D-02 conv= 1.00D-05.
 RLE energy=       -0.2179994484
 E3=       -0.55059781D-02        EUMP3=      -0.76258041095D+02
 E4(DQ)=   -0.11976480D-02        UMP4(DQ)=   -0.76259238743D+02
 E4(SDQ)=  -0.27137853D-02        UMP4(SDQ)=  -0.76260754881D+02
 VARIATIONAL ENERGIES WITH THE FIRST-ORDER WAVEFUNCTION:
 DE(Corr)= -0.21795486     E(Corr)=     -76.255609566    
 NORM(A)=   0.10285525D+01
 Iteration Nr.   2
 **********************
 DD1Dir will call FoFMem   1 times, MxPair=        20
 NAB=    10 NAA=     0 NBB=     0.
 A-vector RMS=  5.7800937D-04 Max=  2.7719223D-03 conv= 1.00D-05.
 RLE energy=       -0.2225603513
 DE(Corr)= -0.22202488     E(CORR)=     -76.259679588     Delta=-4.07D-03
 NORM(A)=   0.10304152D+01
 Iteration Nr.   3
 **********************
 DD1Dir will call FoFMem   1 times, MxPair=        20
 NAB=    10 NAA=     0 NBB=     0.
 A-vector RMS=  6.7279805D-04 Max=  2.5917631D-03 conv= 1.00D-05.
 RLE energy=       -0.2228763337
 DE(Corr)= -0.22252295     E(CORR)=     -76.260177659     Delta=-4.98D-04
 NORM(A)=   0.10308352D+01
 Iteration Nr.   4
 **********************
 DD1Dir will call FoFMem   1 times, MxPair=        20
 NAB=    10 NAA=     0 NBB=     0.
 A-vector RMS=  7.9188908D-05 Max=  3.3349155D-04 conv= 1.00D-05.
 RLE energy=       -0.2229056516
 DE(Corr)= -0.22288173     E(CORR)=     -76.260536434     Delta=-3.59D-04
 NORM(A)=   0.10309274D+01
 Iteration Nr.   5
 **********************
 DD1Dir will call FoFMem   1 times, MxPair=        20
 NAB=    10 NAA=     0 NBB=     0.
 A-vector RMS=  3.3779120D-05 Max=  1.5186955D-04 conv= 1.00D-05.
 RLE energy=       -0.2229092684
 DE(Corr)= -0.22290667     E(CORR)=     -76.260561375     Delta=-2.49D-05
 NORM(A)=   0.10309420D+01
 Iteration Nr.   6
 **********************
 DD1Dir will call FoFMem   1 times, MxPair=        20
 NAB=    10 NAA=     0 NBB=     0.
 A-vector RMS=  9.0223751D-06 Max=  3.7728808D-05 conv= 1.00D-05.
 RLE energy=       -0.2229071239
 DE(Corr)= -0.22290814     E(CORR)=     -76.260562843     Delta=-1.47D-06
 NORM(A)=   0.10309437D+01
 Iteration Nr.   7
 **********************
 DD1Dir will call FoFMem   1 times, MxPair=        20
 NAB=    10 NAA=     0 NBB=     0.
 A-vector RMS=  3.0879304D-06 Max=  1.1775505D-05 conv= 1.00D-05.
 RLE energy=       -0.2229076138
 DE(Corr)= -0.22290811     E(CORR)=     -76.260562813     Delta= 2.97D-08
 NORM(A)=   0.10309443D+01
 Iteration Nr.   8
 **********************
 DD1Dir will call FoFMem   1 times, MxPair=        20
 NAB=    10 NAA=     0 NBB=     0.
 A-vector RMS=  1.0009068D-06 Max=  4.6790929D-06 conv= 1.00D-05.
 RLE energy=       -0.2229078043
 DE(Corr)= -0.22290786     E(CORR)=     -76.260562566     Delta= 2.47D-07
 NORM(A)=   0.10309446D+01
 Iteration Nr.   9
 **********************
 DD1Dir will call FoFMem   1 times, MxPair=        20
 NAB=    10 NAA=     0 NBB=     0.
 A-vector RMS=  2.3573521D-07 Max=  8.5740774D-07 conv= 1.00D-05.
 RLE energy=       -0.2229079565
 DE(Corr)= -0.22290797     E(CORR)=     -76.260562673     Delta=-1.07D-07
 NORM(A)=   0.10309447D+01
 Iteration Nr.  10
 **********************
 DD1Dir will call FoFMem   1 times, MxPair=        20
 NAB=    10 NAA=     0 NBB=     0.
 A-vector RMS=  1.0464415D-07 Max=  3.4458856D-07 conv= 1.00D-05.
 RLE energy=       -0.2229079926
 DE(Corr)= -0.22290798     E(CORR)=     -76.260562686     Delta=-1.24D-08
 NORM(A)=   0.10309447D+01
 CI/CC converged in   10 iterations to DelEn=-1.24D-08 Conv= 1.00D-07 ErrA1= 1.05D-07 Conv= 1.00D-05
 Wavefunction amplitudes converged. E(Corr)=     -76.260562686    
 Largest amplitude= 3.35D-02
 IPart=  4 IA=    3   10.95% done.
 IPart=  2 IA=    5   21.27% done.
 IPart=  1 IA=    7   30.95% done.
 IPart=  2 IA=    9   40.00% done.
 IPart=  1 IA=   12   52.38% done.
 IPart=  1 IA=   15   63.33% done.
 IPart=  1 IA=   18   72.86% done.
 IPart=  4 IA=   21   80.95% done.
 IPart=  4 IA=   26   91.27% done.
 Time for triples=        0.98 seconds.
 T4(CCSD)= -0.51990773D-02
 T5(CCSD)=  0.36364925D-03
 CCSD(T)= -0.76265398114D+02
 Discarding MO integrals.
 Leave Link  913 at Wed Feb  8 14:47:11 2023, MaxMem=   754974720 cpu:               2.0 elap:               0.5
 (Enter /opt/cluster/programs/g16-c.01/g16/l601.exe)
 Copying SCF densities to generalized density rwf, IOpCl= 0 IROHF=0.

 **********************************************************************

            Population analysis using the SCF Density.

 **********************************************************************

 Orbital symmetries:
       Occupied  (A1) (A1) (B2) (A1) (B1)
       Virtual   (A1) (B2) (A1) (B1) (A1) (B2) (B2) (A1) (A2) (A1)
                 (B1) (B2) (B2) (A1) (B2) (A1) (B1) (A1) (A2) (A1)
                 (B2) (B1) (A1) (B2) (A2) (B1) (A1) (B2) (A1) (B2)
                 (A1) (B1) (A1) (A2) (A1) (B2)
 The electronic state is 1-A1.
 Alpha  occ. eigenvalues --  -20.56444  -1.37560  -0.76681  -0.57507  -0.51114
 Alpha virt. eigenvalues --    0.03696   0.05730   0.17375   0.19287   0.22426
 Alpha virt. eigenvalues --    0.22690   0.31021   0.32424   0.38415   0.43140
 Alpha virt. eigenvalues --    0.45673   0.53635   0.65542   0.66372   0.86811
 Alpha virt. eigenvalues --    0.91162   1.08304   1.09327   1.15332   1.38954
 Alpha virt. eigenvalues --    1.49494   1.50940   1.59237   2.02216   2.07666
 Alpha virt. eigenvalues --    2.10919   2.47844   2.54168   2.71902   2.78564
 Alpha virt. eigenvalues --    2.90598   3.66516   3.68289   3.72003   4.20380
 Alpha virt. eigenvalues --    4.37189
          Condensed to atoms (all electrons):
               1          2          3
     1  O    7.486166   0.362458   0.362458
     2  H    0.362458   0.599249  -0.067247
     3  H    0.362458  -0.067247   0.599249
 Mulliken charges:
               1
     1  O   -0.211081
     2  H    0.105540
     3  H    0.105540
 Sum of Mulliken charges =   0.00000
 Mulliken charges with hydrogens summed into heavy atoms:
               1
     1  O    0.000000
 Electronic spatial extent (au):  <R**2>=             18.9388
 Charge=              0.0000 electrons
 Dipole moment (field-independent basis, Debye):
    X=             -0.0000    Y=              0.0000    Z=             -1.7935  Tot=              1.7935
 Quadrupole moment (field-independent basis, Debye-Ang):
   XX=             -7.4901   YY=             -3.9995   ZZ=             -6.5113
   XY=              0.0000   XZ=              0.0000   YZ=             -0.0000
 Traceless Quadrupole moment (field-independent basis, Debye-Ang):
   XX=             -1.4898   YY=              2.0008   ZZ=             -0.5110
   XY=              0.0000   XZ=              0.0000   YZ=             -0.0000
 Octapole moment (field-independent basis, Debye-Ang**2):
  XXX=              0.0000  YYY=             -0.0000  ZZZ=             -1.0777  XYY=             -0.0000
  XXY=             -0.0000  XXZ=             -0.3037  XZZ=              0.0000  YZZ=              0.0000
  YYZ=             -1.2425  XYZ=             -0.0000
 Hexadecapole moment (field-independent basis, Debye-Ang**3):
 XXXX=             -6.7226 YYYY=             -5.4035 ZZZZ=             -6.9711 XXXY=             -0.0000
 XXXZ=             -0.0000 YYYX=             -0.0000 YYYZ=              0.0000 ZZZX=             -0.0000
 ZZZY=              0.0000 XXYY=             -2.3656 XXZZ=             -2.3092 YYZZ=             -1.9399
 XXYZ=              0.0000 YYXZ=              0.0000 ZZXY=             -0.0000
 N-N= 9.660639193785D+00 E-N=-1.999338222719D+02  KE= 7.612335414660D+01
 Symmetry A1   KE= 6.803413361969D+01
 Symmetry A2   KE= 2.808375535725D-34
 Symmetry B1   KE= 4.432524578692D+00
 Symmetry B2   KE= 3.656695948225D+00
 Leave Link  601 at Wed Feb  8 14:47:12 2023, MaxMem=   754974720 cpu:               0.2 elap:               0.1
 (Enter /opt/cluster/programs/g16-c.01/g16/l9999.exe)
 Unable to Open any file for archive entry.
 1\1\GINC-NODE61\SP\RCCSD(T)-FC\Aug-CC-pVDZ\H2O1\BOITTIER\08-Feb-2023\0
 \\#P CCSD(T)/aug-cc-pVDZ scf(maxcycle=200)\\Gaussian input\\0,1\O,0,0.
 ,0.11751,0.\H,0,0.7183372325,-0.4395112028,0.\H,0,-0.8043881657,-0.305
 8582544,0.\\Version=ES64L-G16RevC.01\State=1-A1\HF=-76.0376547\MP2=-76
 .2525351\MP3=-76.2580411\MP4D=-76.2615825\MP4DQ=-76.2592387\MP4SDQ=-76
 .2607549\CCSD=-76.2605627\CCSD(T)=-76.2653981\RMSD=2.984e-09\PG=C02V [
 C2(O1),SGV(H2)]\\@
 The archive entry for this job was punched.


 SEEN ON A WALL AT THE UNIVERSITY OF ILLINOIS AT CHICAGO CIRCLE:

 TO DO IS TO BE  -- SOCRATES
 TO BE IS TO DO  -- SARTRE
 OO BE DO BE DO  -- SINATRA
 Job cpu time:       0 days  0 hours  0 minutes  6.3 seconds.
 Elapsed time:       0 days  0 hours  0 minutes  1.8 seconds.
 File lengths (MBytes):  RWF=     20 Int=      0 D2E=      0 Chk=      1 Scr=      1
 Normal termination of Gaussian 16 at Wed Feb  8 14:47:12 2023.
