 Entering Gaussian System, Link 0=/opt/cluster/programs/g16-c.01/g16/g16
 Input=/scratch/boittier/jobs/tmp.7465569/gaussian_125_water_pbe0_adz.com
 Output=/scratch/boittier/jobs/tmp.7465569/gaussian_125_water_pbe0_adz.out
 Initial command:
 /opt/cluster/programs/g16-c.01/g16/l1.exe "/scratch/boittier/jobs/tmp.7465569/Gau-39100.inp" -scrdir="/scratch/boittier/jobs/tmp.7465569/"
 Entering Link 1 = /opt/cluster/programs/g16-c.01/g16/l1.exe PID=     39102.
  
 Copyright (c) 1988-2019, Gaussian, Inc.  All Rights Reserved.
  
 This is part of the Gaussian(R) 16 program.  It is based on
 the Gaussian(R) 09 system (copyright 2009, Gaussian, Inc.),
 the Gaussian(R) 03 system (copyright 2003, Gaussian, Inc.),
 the Gaussian(R) 98 system (copyright 1998, Gaussian, Inc.),
 the Gaussian(R) 94 system (copyright 1995, Gaussian, Inc.),
 the Gaussian 92(TM) system (copyright 1992, Gaussian, Inc.),
 the Gaussian 90(TM) system (copyright 1990, Gaussian, Inc.),
 the Gaussian 88(TM) system (copyright 1988, Gaussian, Inc.),
 the Gaussian 86(TM) system (copyright 1986, Carnegie Mellon
 University), and the Gaussian 82(TM) system (copyright 1983,
 Carnegie Mellon University). Gaussian is a federally registered
 trademark of Gaussian, Inc.
  
 This software contains proprietary and confidential information,
 including trade secrets, belonging to Gaussian, Inc.
  
 This software is provided under written license and may be
 used, copied, transmitted, or stored only in accord with that
 written license.
  
 The following legend is applicable only to US Government
 contracts under FAR:
  
                    RESTRICTED RIGHTS LEGEND
  
 Use, reproduction and disclosure by the US Government is
 subject to restrictions as set forth in subparagraphs (a)
 and (c) of the Commercial Computer Software - Restricted
 Rights clause in FAR 52.227-19.
  
 Gaussian, Inc.
 340 Quinnipiac St., Bldg. 40, Wallingford CT 06492
  
  
 ---------------------------------------------------------------
 Warning -- This program may not be used in any manner that
 competes with the business of Gaussian, Inc. or will provide
 assistance to any competitor of Gaussian, Inc.  The licensee
 of this program is prohibited from giving any competitor of
 Gaussian, Inc. access to this program.  By using this program,
 the user acknowledges that Gaussian, Inc. is engaged in the
 business of creating and licensing software in the field of
 computational chemistry and represents and warrants to the
 licensee that it is not a competitor of Gaussian, Inc. and that
 it will not use this program in any manner prohibited above.
 ---------------------------------------------------------------
  

 Cite this work as:
 Gaussian 16, Revision C.01,
 M. J. Frisch, G. W. Trucks, H. B. Schlegel, G. E. Scuseria, 
 M. A. Robb, J. R. Cheeseman, G. Scalmani, V. Barone, 
 G. A. Petersson, H. Nakatsuji, X. Li, M. Caricato, A. V. Marenich, 
 J. Bloino, B. G. Janesko, R. Gomperts, B. Mennucci, H. P. Hratchian, 
 J. V. Ortiz, A. F. Izmaylov, J. L. Sonnenberg, D. Williams-Young, 
 F. Ding, F. Lipparini, F. Egidi, J. Goings, B. Peng, A. Petrone, 
 T. Henderson, D. Ranasinghe, V. G. Zakrzewski, J. Gao, N. Rega, 
 G. Zheng, W. Liang, M. Hada, M. Ehara, K. Toyota, R. Fukuda, 
 J. Hasegawa, M. Ishida, T. Nakajima, Y. Honda, O. Kitao, H. Nakai, 
 T. Vreven, K. Throssell, J. A. Montgomery, Jr., J. E. Peralta, 
 F. Ogliaro, M. J. Bearpark, J. J. Heyd, E. N. Brothers, K. N. Kudin, 
 V. N. Staroverov, T. A. Keith, R. Kobayashi, J. Normand, 
 K. Raghavachari, A. P. Rendell, J. C. Burant, S. S. Iyengar, 
 J. Tomasi, M. Cossi, J. M. Millam, M. Klene, C. Adamo, R. Cammi, 
 J. W. Ochterski, R. L. Martin, K. Morokuma, O. Farkas, 
 J. B. Foresman, and D. J. Fox, Gaussian, Inc., Wallingford CT, 2019.
 
 ******************************************
 Gaussian 16:  ES64L-G16RevC.01  3-Jul-2019
                29-Mar-2023 
 ******************************************
 %nproc=4
 Will use up to    4 processors via shared memory.
 %mem=5760MB
 %chk=gaussian_125_water_pbe0_adz.chk
 ----------------------------------------
 #P PBE1PBE/aug-cc-pVDZ scf(maxcycle=200)
 ----------------------------------------
 1/38=1,172=1/1;
 2/12=2,17=6,18=5,40=1/2;
 3/5=16,7=10,11=2,25=1,30=1,74=-13/1,2,3;
 4//1;
 5/5=2,7=200,38=5/2;
 6/7=2,8=2,9=2,10=2,28=1/1;
 99/5=1,9=1/99;
 Leave Link    1 at Wed Mar 29 21:53:01 2023, MaxMem=   754974720 cpu:               0.1 elap:               0.0
 (Enter /opt/cluster/programs/g16-c.01/g16/l101.exe)
 --------------
 Gaussian input
 --------------
 Symbolic Z-matrix:
 Charge =  0 Multiplicity = 1
 O                     0.        0.11751   0. 
 H                     0.79736  -0.50079   0. 
 H                    -0.61108  -0.55544   0. 
 
 ITRead=  0  0  0
 MicOpt= -1 -1 -1
 NAtoms=      3 NQM=        3 NQMF=       0 NMMI=      0 NMMIF=      0
                NMic=       0 NMicF=      0.
                    Isotopes and Nuclear Properties:
 (Nuclear quadrupole moments (NQMom) in fm**2, nuclear magnetic moments (NMagM)
  in nuclear magnetons)

  Atom         1           2           3
 IAtWgt=          16           1           1
 AtmWgt=  15.9949146   1.0078250   1.0078250
 NucSpn=           0           1           1
 AtZEff=  -0.0000000  -0.0000000  -0.0000000
 NQMom=    0.0000000   0.0000000   0.0000000
 NMagM=    0.0000000   2.7928460   2.7928460
 AtZNuc=   8.0000000   1.0000000   1.0000000
 Leave Link  101 at Wed Mar 29 21:53:01 2023, MaxMem=   754974720 cpu:               0.6 elap:               0.2
 (Enter /opt/cluster/programs/g16-c.01/g16/l202.exe)
                          Input orientation:                          
 ---------------------------------------------------------------------
 Center     Atomic      Atomic             Coordinates (Angstroms)
 Number     Number       Type             X           Y           Z
 ---------------------------------------------------------------------
      1          8           0        0.000000    0.117510    0.000000
      2          1           0        0.797362   -0.500790    0.000000
      3          1           0       -0.611077   -0.555443    0.000000
 ---------------------------------------------------------------------
                    Distance matrix (angstroms):
                    1          2          3
     1  O    0.000000
     2  H    1.009000   0.000000
     3  H    0.909000   1.409499   0.000000
 Stoichiometry    H2O
 Framework group  CS[SG(H2O)]
 Deg. of freedom     3
 Full point group                 CS      NOp   2
 Largest Abelian subgroup         CS      NOp   2
 Largest concise Abelian subgroup C1      NOp   1
                         Standard orientation:                         
 ---------------------------------------------------------------------
 Center     Atomic      Atomic             Coordinates (Angstroms)
 Number     Number       Type             X           Y           Z
 ---------------------------------------------------------------------
      1          8           0        0.000000    0.130462    0.000000
      2          1           0        0.700906   -0.595356   -0.000000
      3          1           0       -0.700906   -0.448340    0.000000
 ---------------------------------------------------------------------
 Rotational constants (GHZ):         691.3715806         489.7904098         286.6898635
 Leave Link  202 at Wed Mar 29 21:53:01 2023, MaxMem=   754974720 cpu:               0.0 elap:               0.0
 (Enter /opt/cluster/programs/g16-c.01/g16/l301.exe)
 Standard basis: Aug-CC-pVDZ (5D, 7F)
 Ernie: Thresh=  0.10000D-02 Tol=  0.10000D-05 Strict=F.
 Ernie:  2 primitive shells out of 39 were deleted.
 There are    32 symmetry adapted cartesian basis functions of A'  symmetry.
 There are    11 symmetry adapted cartesian basis functions of A"  symmetry.
 There are    30 symmetry adapted basis functions of A'  symmetry.
 There are    11 symmetry adapted basis functions of A"  symmetry.
    41 basis functions,    65 primitive gaussians,    43 cartesian basis functions
     5 alpha electrons        5 beta electrons
       nuclear repulsion energy         9.2283182420 Hartrees.
 IExCor= 1009 DFT=T Ex+Corr=PBE1PBE ExCW=0 ScaHFX=  0.250000
 ScaDFX=  0.750000  0.750000  1.000000  1.000000 ScalE2=  1.000000  1.000000
 IRadAn=      5 IRanWt=     -1 IRanGd=            0 ICorTp=0 IEmpDi=  4
 NAtoms=    3 NActive=    3 NUniq=    3 SFac= 1.00D+00 NAtFMM=   60 NAOKFM=F Big=F
 Integral buffers will be    131072 words long.
 Raffenetti 2 integral format.
 Two-electron integral symmetry is turned on.
 Leave Link  301 at Wed Mar 29 21:53:01 2023, MaxMem=   754974720 cpu:               0.2 elap:               0.1
 (Enter /opt/cluster/programs/g16-c.01/g16/l302.exe)
 NPDir=0 NMtPBC=     1 NCelOv=     1 NCel=       1 NClECP=     1 NCelD=      1
         NCelK=      1 NCelE2=     1 NClLst=     1 CellRange=     0.0.
 One-electron integrals computed using PRISM.
 One-electron integral symmetry used in STVInt
 NBasis=    41 RedAO= T EigKep=  2.15D-03  NBF=    30    11
 NBsUse=    41 1.00D-06 EigRej= -1.00D+00 NBFU=    30    11
 Precomputing XC quadrature grid using
 IXCGrd= 4 IRadAn=           5 IRanWt=          -1 IRanGd=           0 AccXCQ= 0.00D+00.
 Generated NRdTot=       0 NPtTot=           0 NUsed=           0 NTot=          32
 NSgBfM=    43    43    43    43    43 MxSgAt=     3 MxSgA2=     3.
 Leave Link  302 at Wed Mar 29 21:53:01 2023, MaxMem=   754974720 cpu:               0.5 elap:               0.2
 (Enter /opt/cluster/programs/g16-c.01/g16/l303.exe)
 DipDrv:  MaxL=1.
 Leave Link  303 at Wed Mar 29 21:53:02 2023, MaxMem=   754974720 cpu:               0.3 elap:               0.1
 (Enter /opt/cluster/programs/g16-c.01/g16/l401.exe)
 ExpMin= 2.97D-02 ExpMax= 1.17D+04 ExpMxC= 4.01D+02 IAcc=3 IRadAn=         5 AccDes= 0.00D+00
 Harris functional with IExCor= 1009 and IRadAn=       5 diagonalized for initial guess.
 HarFok:  IExCor= 1009 AccDes= 0.00D+00 IRadAn=         5 IDoV= 1 UseB2=F ITyADJ=14
 ICtDFT=  3500011 ScaDFX=  1.000000  1.000000  1.000000  1.000000
 FoFCou: FMM=F IPFlag=           0 FMFlag=      100000 FMFlg1=           0
         NFxFlg=           0 DoJE=T BraDBF=F KetDBF=T FulRan=T
         wScrn=  0.000000 ICntrl=       500 IOpCl=  0 I1Cent=   200000004 NGrid=           0
         NMat0=    1 NMatS0=      1 NMatT0=    0 NMatD0=    1 NMtDS0=    0 NMtDT0=    0
 Petite list used in FoFCou.
 Harris En= -76.3912322529474    
 JPrj=0 DoOrth=F DoCkMO=F.
 Initial guess orbital symmetries:
       Occupied  (A') (A') (A') (A') (A")
       Virtual   (A') (A') (A') (A") (A') (A') (A') (A') (A') (A")
                 (A") (A') (A') (A') (A') (A') (A") (A') (A") (A')
                 (A") (A') (A') (A") (A') (A") (A') (A') (A') (A')
                 (A') (A") (A') (A") (A') (A')
 The electronic state of the initial guess is 1-A'.
 Leave Link  401 at Wed Mar 29 21:53:02 2023, MaxMem=   754974720 cpu:               0.6 elap:               0.2
 (Enter /opt/cluster/programs/g16-c.01/g16/l502.exe)
 Keep R1 ints in memory in symmetry-blocked form, NReq=3831793.
 FoFCou: FMM=F IPFlag=           0 FMFlag=           0 FMFlg1=           0
         NFxFlg=           0 DoJE=F BraDBF=F KetDBF=F FulRan=T
         wScrn=  0.000000 ICntrl=       600 IOpCl=  0 I1Cent=           0 NGrid=           0
         NMat0=    1 NMatS0=    861 NMatT0=    0 NMatD0=    1 NMtDS0=    0 NMtDT0=    0
 Petite list used in FoFCou.
 Closed shell SCF:
 Using DIIS extrapolation, IDIIS=  1040.
 NGot=   754974720 LenX=   754771907 LenY=   754769617
 Requested convergence on RMS density matrix=1.00D-08 within 200 cycles.
 Requested convergence on MAX density matrix=1.00D-06.
 Requested convergence on             energy=1.00D-06.
 No special actions if energy rises.

 Cycle   1  Pass 1  IDiag  1:
 E= -76.2838247369764    
 DIIS: error= 5.27D-02 at cycle   1 NSaved=   1.
 NSaved= 1 IEnMin= 1 EnMin= -76.2838247369764     IErMin= 1 ErrMin= 5.27D-02
 ErrMax= 5.27D-02  0.00D+00 EMaxC= 1.00D-01 BMatC= 8.88D-02 BMatP= 8.88D-02
 IDIUse=3 WtCom= 4.73D-01 WtEn= 5.27D-01
 Coeff-Com:  0.100D+01
 Coeff-En:   0.100D+01
 Coeff:      0.100D+01
 Gap=     0.175 Goal=   None    Shift=    0.000
 GapD=    0.175 DampG=1.000 DampE=0.500 DampFc=0.5000 IDamp=-1.
 Damping current iteration by 5.00D-01
 RMSDP=1.02D-02 MaxDP=1.62D-01              OVMax= 2.03D-01

 Cycle   2  Pass 1  IDiag  1:
 E= -76.3003863528498     Delta-E=       -0.016561615873 Rises=F Damp=T
 DIIS: error= 1.81D-02 at cycle   2 NSaved=   2.
 NSaved= 2 IEnMin= 2 EnMin= -76.3003863528498     IErMin= 2 ErrMin= 1.81D-02
 ErrMax= 1.81D-02  0.00D+00 EMaxC= 1.00D-01 BMatC= 8.73D-03 BMatP= 8.88D-02
 IDIUse=3 WtCom= 8.19D-01 WtEn= 1.81D-01
 Coeff-Com:  0.228D+00 0.772D+00
 Coeff-En:   0.380D+00 0.620D+00
 Coeff:      0.256D+00 0.744D+00
 Gap=     0.310 Goal=   None    Shift=    0.000
 RMSDP=1.27D-03 MaxDP=1.62D-02 DE=-1.66D-02 OVMax= 1.28D-01

 Cycle   3  Pass 1  IDiag  1:
 E= -76.3521371914738     Delta-E=       -0.051750838624 Rises=F Damp=F
 DIIS: error= 1.64D-03 at cycle   3 NSaved=   3.
 NSaved= 3 IEnMin= 3 EnMin= -76.3521371914738     IErMin= 3 ErrMin= 1.64D-03
 ErrMax= 1.64D-03  0.00D+00 EMaxC= 1.00D-01 BMatC= 9.05D-05 BMatP= 8.73D-03
 IDIUse=3 WtCom= 9.84D-01 WtEn= 1.64D-02
 Coeff-Com:  0.180D-01-0.446D-01 0.103D+01
 Coeff-En:   0.000D+00 0.000D+00 0.100D+01
 Coeff:      0.177D-01-0.438D-01 0.103D+01
 Gap=     0.320 Goal=   None    Shift=    0.000
 RMSDP=1.45D-04 MaxDP=1.93D-03 DE=-5.18D-02 OVMax= 2.01D-03

 Cycle   4  Pass 1  IDiag  1:
 E= -76.3521954181523     Delta-E=       -0.000058226679 Rises=F Damp=F
 DIIS: error= 2.94D-04 at cycle   4 NSaved=   4.
 NSaved= 4 IEnMin= 4 EnMin= -76.3521954181523     IErMin= 4 ErrMin= 2.94D-04
 ErrMax= 2.94D-04  0.00D+00 EMaxC= 1.00D-01 BMatC= 3.13D-06 BMatP= 9.05D-05
 IDIUse=3 WtCom= 9.97D-01 WtEn= 2.94D-03
 Coeff-Com:  0.523D-02-0.184D-01 0.227D+00 0.786D+00
 Coeff-En:   0.000D+00 0.000D+00 0.000D+00 0.100D+01
 Coeff:      0.522D-02-0.184D-01 0.227D+00 0.787D+00
 Gap=     0.321 Goal=   None    Shift=    0.000
 RMSDP=1.97D-05 MaxDP=3.11D-04 DE=-5.82D-05 OVMax= 4.35D-04

 Cycle   5  Pass 1  IDiag  1:
 E= -76.3521975224916     Delta-E=       -0.000002104339 Rises=F Damp=F
 DIIS: error= 9.11D-05 at cycle   5 NSaved=   5.
 NSaved= 5 IEnMin= 5 EnMin= -76.3521975224916     IErMin= 5 ErrMin= 9.11D-05
 ErrMax= 9.11D-05  0.00D+00 EMaxC= 1.00D-01 BMatC= 2.17D-07 BMatP= 3.13D-06
 IDIUse=1 WtCom= 1.00D+00 WtEn= 0.00D+00
 Coeff-Com:  0.132D-02-0.212D-02 0.407D-02 0.920D-01 0.905D+00
 Coeff:      0.132D-02-0.212D-02 0.407D-02 0.920D-01 0.905D+00
 Gap=     0.321 Goal=   None    Shift=    0.000
 RMSDP=6.79D-06 MaxDP=9.55D-05 DE=-2.10D-06 OVMax= 1.30D-04

 Cycle   6  Pass 1  IDiag  1:
 E= -76.3521976930512     Delta-E=       -0.000000170560 Rises=F Damp=F
 DIIS: error= 5.50D-06 at cycle   6 NSaved=   6.
 NSaved= 6 IEnMin= 6 EnMin= -76.3521976930512     IErMin= 6 ErrMin= 5.50D-06
 ErrMax= 5.50D-06  0.00D+00 EMaxC= 1.00D-01 BMatC= 7.05D-10 BMatP= 2.17D-07
 IDIUse=1 WtCom= 1.00D+00 WtEn= 0.00D+00
 Coeff-Com:  0.126D-03-0.208D-03-0.602D-04 0.162D-02 0.730D-01 0.926D+00
 Coeff:      0.126D-03-0.208D-03-0.602D-04 0.162D-02 0.730D-01 0.926D+00
 Gap=     0.321 Goal=   None    Shift=    0.000
 RMSDP=5.43D-07 MaxDP=6.55D-06 DE=-1.71D-07 OVMax= 9.39D-06

 Cycle   7  Pass 1  IDiag  1:
 E= -76.3521976936412     Delta-E=       -0.000000000590 Rises=F Damp=F
 DIIS: error= 7.53D-07 at cycle   7 NSaved=   7.
 NSaved= 7 IEnMin= 7 EnMin= -76.3521976936412     IErMin= 7 ErrMin= 7.53D-07
 ErrMax= 7.53D-07  0.00D+00 EMaxC= 1.00D-01 BMatC= 2.69D-11 BMatP= 7.05D-10
 IDIUse=1 WtCom= 1.00D+00 WtEn= 0.00D+00
 Coeff-Com: -0.357D-04 0.517D-04-0.205D-03-0.441D-02-0.298D-01 0.220D+00
 Coeff-Com:  0.814D+00
 Coeff:     -0.357D-04 0.517D-04-0.205D-03-0.441D-02-0.298D-01 0.220D+00
 Coeff:      0.814D+00
 Gap=     0.321 Goal=   None    Shift=    0.000
 RMSDP=1.01D-07 MaxDP=1.11D-06 DE=-5.90D-10 OVMax= 1.88D-06

 Cycle   8  Pass 1  IDiag  1:
 E= -76.3521976936647     Delta-E=       -0.000000000023 Rises=F Damp=F
 DIIS: error= 9.05D-08 at cycle   8 NSaved=   8.
 NSaved= 8 IEnMin= 8 EnMin= -76.3521976936647     IErMin= 8 ErrMin= 9.05D-08
 ErrMax= 9.05D-08  0.00D+00 EMaxC= 1.00D-01 BMatC= 3.14D-13 BMatP= 2.69D-11
 IDIUse=1 WtCom= 1.00D+00 WtEn= 0.00D+00
 Coeff-Com: -0.888D-06 0.200D-05-0.116D-04 0.269D-03 0.848D-03-0.191D-01
 Coeff-Com: -0.530D-01 0.107D+01
 Coeff:     -0.888D-06 0.200D-05-0.116D-04 0.269D-03 0.848D-03-0.191D-01
 Coeff:     -0.530D-01 0.107D+01
 Gap=     0.321 Goal=   None    Shift=    0.000
 RMSDP=9.83D-09 MaxDP=1.94D-07 DE=-2.35D-11 OVMax= 3.22D-07

 SCF Done:  E(RPBE1PBE) =  -76.3521976937     A.U. after    8 cycles
            NFock=  8  Conv=0.98D-08     -V/T= 2.0049
 KE= 7.598043334764D+01 PE=-1.989621394578D+02 EE= 3.740119017449D+01
 Leave Link  502 at Wed Mar 29 21:53:02 2023, MaxMem=   754974720 cpu:               2.0 elap:               0.5
 (Enter /opt/cluster/programs/g16-c.01/g16/l601.exe)
 Copying SCF densities to generalized density rwf, IOpCl= 0 IROHF=0.

 **********************************************************************

            Population analysis using the SCF Density.

 **********************************************************************

 Orbital symmetries:
       Occupied  (A') (A') (A') (A') (A")
       Virtual   (A') (A') (A') (A") (A') (A') (A') (A') (A') (A")
                 (A") (A') (A') (A') (A') (A') (A") (A') (A") (A')
                 (A") (A') (A') (A") (A') (A") (A') (A') (A') (A')
                 (A') (A") (A') (A") (A') (A')
 The electronic state is 1-A'.
 Alpha  occ. eigenvalues --  -19.23367  -1.05793  -0.53224  -0.43029  -0.33529
 Alpha virt. eigenvalues --   -0.01414   0.03363   0.10925   0.13250   0.14316
 Alpha virt. eigenvalues --    0.16898   0.18702   0.25407   0.28829   0.29582
 Alpha virt. eigenvalues --    0.32216   0.46342   0.50396   0.54989   0.62264
 Alpha virt. eigenvalues --    0.78206   0.92575   0.94009   0.96465   1.05470
 Alpha virt. eigenvalues --    1.20484   1.21504   1.35949   1.74440   1.77049
 Alpha virt. eigenvalues --    1.89449   1.99558   2.14411   2.35551   2.44009
 Alpha virt. eigenvalues --    2.73562   3.30542   3.32632   3.33440   3.59650
 Alpha virt. eigenvalues --    3.94394
          Condensed to atoms (all electrons):
               1          2          3
     1  O    7.577403   0.303420   0.329581
     2  H    0.303420   0.598753  -0.054278
     3  H    0.329581  -0.054278   0.666397
 Mulliken charges:
               1
     1  O   -0.210405
     2  H    0.152104
     3  H    0.058300
 Sum of Mulliken charges =   0.00000
 Mulliken charges with hydrogens summed into heavy atoms:
               1
     1  O    0.000000
 Electronic spatial extent (au):  <R**2>=             19.9106
 Charge=             -0.0000 electrons
 Dipole moment (field-independent basis, Debye):
    X=             -0.0575    Y=             -2.0079    Z=             -0.0000  Tot=              2.0088
 Quadrupole moment (field-independent basis, Debye-Ang):
   XX=             -4.9038   YY=             -6.1106   ZZ=             -7.7248
   XY=             -0.2086   XZ=             -0.0000   YZ=              0.0000
 Traceless Quadrupole moment (field-independent basis, Debye-Ang):
   XX=              1.3426   YY=              0.1358   ZZ=             -1.4784
   XY=             -0.2086   XZ=             -0.0000   YZ=              0.0000
 Octapole moment (field-independent basis, Debye-Ang**2):
  XXX=             -0.1578  YYY=             -1.2032  ZZZ=             -0.0000  XYY=              0.1568
  XXY=             -1.2100  XXZ=             -0.0000  XZZ=             -0.0590  YZZ=             -0.2495
  YYZ=             -0.0000  XYZ=              0.0000
 Hexadecapole moment (field-independent basis, Debye-Ang**3):
 XXXX=             -6.8446 YYYY=             -8.0405 ZZZZ=             -7.5530 XXXY=              0.0566
 XXXZ=              0.0000 YYYX=             -0.0043 YYYZ=             -0.0000 ZZZX=              0.0000
 ZZZY=             -0.0000 XXYY=             -2.0875 XXZZ=             -2.6265 YYZZ=             -2.6757
 XXYZ=              0.0000 YYXZ=             -0.0000 ZZXY=              0.0677
 N-N= 9.228318241979D+00 E-N=-1.989621361057D+02  KE= 7.598043334764D+01
 Symmetry A'   KE= 7.153216900014D+01
 Symmetry A"   KE= 4.448264347502D+00
 No NMR shielding tensors so no spin-rotation constants.
 Leave Link  601 at Wed Mar 29 21:53:02 2023, MaxMem=   754974720 cpu:               0.6 elap:               0.2
 (Enter /opt/cluster/programs/g16-c.01/g16/l9999.exe)
 Unable to Open any file for archive entry.
 1\1\GINC-NODE90\SP\RPBE1PBE\Aug-CC-pVDZ\H2O1\BOITTIER\29-Mar-2023\0\\#
 P PBE1PBE/aug-cc-pVDZ scf(maxcycle=200)\\Gaussian input\\0,1\O,0,0.,0.
 11751,0.\H,0,0.7973622306,-0.5007896629,0.\H,0,-0.6110771525,-0.555442
 9803,0.\\Version=ES64L-G16RevC.01\State=1-A'\HF=-76.3521977\RMSD=9.832
 e-09\Dipole=0.0904101,-0.7851213,0.\Quadrupole=1.0237657,0.0754142,-1.
 0991799,-0.0219887,0.,0.\PG=CS [SG(H2O1)]\\@
 The archive entry for this job was punched.


 The best way to pay for a lovely moment is to enjoy it.
 -- Richard Bach
 Job cpu time:       0 days  0 hours  0 minutes  5.2 seconds.
 Elapsed time:       0 days  0 hours  0 minutes  1.6 seconds.
 File lengths (MBytes):  RWF=      6 Int=      0 D2E=      0 Chk=      1 Scr=      1
 Normal termination of Gaussian 16 at Wed Mar 29 21:53:03 2023.
