 Entering Gaussian System, Link 0=/opt/cluster/programs/g16-c.01/g16/g16
 Input=/scratch/boittier/jobs/tmp.7262230/gaussian_82_water_ccsdt_adz.com
 Output=/scratch/boittier/jobs/tmp.7262230/gaussian_82_water_ccsdt_adz.out
 Initial command:
 /opt/cluster/programs/g16-c.01/g16/l1.exe "/scratch/boittier/jobs/tmp.7262230/Gau-140024.inp" -scrdir="/scratch/boittier/jobs/tmp.7262230/"
 Entering Link 1 = /opt/cluster/programs/g16-c.01/g16/l1.exe PID=    140025.
  
 Copyright (c) 1988-2019, Gaussian, Inc.  All Rights Reserved.
  
 This is part of the Gaussian(R) 16 program.  It is based on
 the Gaussian(R) 09 system (copyright 2009, Gaussian, Inc.),
 the Gaussian(R) 03 system (copyright 2003, Gaussian, Inc.),
 the Gaussian(R) 98 system (copyright 1998, Gaussian, Inc.),
 the Gaussian(R) 94 system (copyright 1995, Gaussian, Inc.),
 the Gaussian 92(TM) system (copyright 1992, Gaussian, Inc.),
 the Gaussian 90(TM) system (copyright 1990, Gaussian, Inc.),
 the Gaussian 88(TM) system (copyright 1988, Gaussian, Inc.),
 the Gaussian 86(TM) system (copyright 1986, Carnegie Mellon
 University), and the Gaussian 82(TM) system (copyright 1983,
 Carnegie Mellon University). Gaussian is a federally registered
 trademark of Gaussian, Inc.
  
 This software contains proprietary and confidential information,
 including trade secrets, belonging to Gaussian, Inc.
  
 This software is provided under written license and may be
 used, copied, transmitted, or stored only in accord with that
 written license.
  
 The following legend is applicable only to US Government
 contracts under FAR:
  
                    RESTRICTED RIGHTS LEGEND
  
 Use, reproduction and disclosure by the US Government is
 subject to restrictions as set forth in subparagraphs (a)
 and (c) of the Commercial Computer Software - Restricted
 Rights clause in FAR 52.227-19.
  
 Gaussian, Inc.
 340 Quinnipiac St., Bldg. 40, Wallingford CT 06492
  
  
 ---------------------------------------------------------------
 Warning -- This program may not be used in any manner that
 competes with the business of Gaussian, Inc. or will provide
 assistance to any competitor of Gaussian, Inc.  The licensee
 of this program is prohibited from giving any competitor of
 Gaussian, Inc. access to this program.  By using this program,
 the user acknowledges that Gaussian, Inc. is engaged in the
 business of creating and licensing software in the field of
 computational chemistry and represents and warrants to the
 licensee that it is not a competitor of Gaussian, Inc. and that
 it will not use this program in any manner prohibited above.
 ---------------------------------------------------------------
  

 Cite this work as:
 Gaussian 16, Revision C.01,
 M. J. Frisch, G. W. Trucks, H. B. Schlegel, G. E. Scuseria, 
 M. A. Robb, J. R. Cheeseman, G. Scalmani, V. Barone, 
 G. A. Petersson, H. Nakatsuji, X. Li, M. Caricato, A. V. Marenich, 
 J. Bloino, B. G. Janesko, R. Gomperts, B. Mennucci, H. P. Hratchian, 
 J. V. Ortiz, A. F. Izmaylov, J. L. Sonnenberg, D. Williams-Young, 
 F. Ding, F. Lipparini, F. Egidi, J. Goings, B. Peng, A. Petrone, 
 T. Henderson, D. Ranasinghe, V. G. Zakrzewski, J. Gao, N. Rega, 
 G. Zheng, W. Liang, M. Hada, M. Ehara, K. Toyota, R. Fukuda, 
 J. Hasegawa, M. Ishida, T. Nakajima, Y. Honda, O. Kitao, H. Nakai, 
 T. Vreven, K. Throssell, J. A. Montgomery, Jr., J. E. Peralta, 
 F. Ogliaro, M. J. Bearpark, J. J. Heyd, E. N. Brothers, K. N. Kudin, 
 V. N. Staroverov, T. A. Keith, R. Kobayashi, J. Normand, 
 K. Raghavachari, A. P. Rendell, J. C. Burant, S. S. Iyengar, 
 J. Tomasi, M. Cossi, J. M. Millam, M. Klene, C. Adamo, R. Cammi, 
 J. W. Ochterski, R. L. Martin, K. Morokuma, O. Farkas, 
 J. B. Foresman, and D. J. Fox, Gaussian, Inc., Wallingford CT, 2019.
 
 ******************************************
 Gaussian 16:  ES64L-G16RevC.01  3-Jul-2019
                 8-Feb-2023 
 ******************************************
 %nproc=4
 Will use up to    4 processors via shared memory.
 %mem=5760MB
 %chk=gaussian_82_water_ccsdt_adz.chk
 ----------------------------------------
 #P CCSD(T)/aug-cc-pVDZ scf(maxcycle=200)
 ----------------------------------------
 1/38=1,172=1/1;
 2/12=2,17=6,18=5,40=1/2;
 3/5=16,7=10,11=9,25=1,30=1/1,2,3;
 4//1;
 5/5=2,7=200,38=5/2;
 8/6=4,9=120000,10=1/1,4;
 9/5=7,14=2/13;
 6/7=2,8=2,9=2,10=2/1;
 99/5=1,9=1/99;
 Leave Link    1 at Wed Feb  8 14:48:45 2023, MaxMem=   754974720 cpu:               0.2 elap:               0.1
 (Enter /opt/cluster/programs/g16-c.01/g16/l101.exe)
 --------------
 Gaussian input
 --------------
 Symbolic Z-matrix:
 Charge =  0 Multiplicity = 1
 O                     0.        0.11751   0. 
 H                     0.75785  -0.47015   0. 
 H                    -0.56695  -0.65596   0. 
 
 ITRead=  0  0  0
 MicOpt= -1 -1 -1
 NAtoms=      3 NQM=        3 NQMF=       0 NMMI=      0 NMMIF=      0
                NMic=       0 NMicF=      0.
                    Isotopes and Nuclear Properties:
 (Nuclear quadrupole moments (NQMom) in fm**2, nuclear magnetic moments (NMagM)
  in nuclear magnetons)

  Atom         1           2           3
 IAtWgt=          16           1           1
 AtmWgt=  15.9949146   1.0078250   1.0078250
 NucSpn=           0           1           1
 AtZEff=  -0.0000000  -0.0000000  -0.0000000
 NQMom=    0.0000000   0.0000000   0.0000000
 NMagM=    0.0000000   2.7928460   2.7928460
 AtZNuc=   8.0000000   1.0000000   1.0000000
 Leave Link  101 at Wed Feb  8 14:48:45 2023, MaxMem=   754974720 cpu:               0.7 elap:               0.2
 (Enter /opt/cluster/programs/g16-c.01/g16/l202.exe)
                          Input orientation:                          
 ---------------------------------------------------------------------
 Center     Atomic      Atomic             Coordinates (Angstroms)
 Number     Number       Type             X           Y           Z
 ---------------------------------------------------------------------
      1          8           0        0.000000    0.117510    0.000000
      2          1           0        0.757850   -0.470150    0.000000
      3          1           0       -0.566946   -0.655958    0.000000
 ---------------------------------------------------------------------
                    Distance matrix (angstroms):
                    1          2          3
     1  O    0.000000
     2  H    0.959000   0.000000
     3  H    0.959000   1.337763   0.000000
 Stoichiometry    H2O
 Framework group  C2V[C2(O),SGV(H2)]
 Deg. of freedom     2
 Full point group                 C2V     NOp   4
 Largest Abelian subgroup         C2V     NOp   4
 Largest concise Abelian subgroup C2      NOp   2
                         Standard orientation:                         
 ---------------------------------------------------------------------
 Center     Atomic      Atomic             Coordinates (Angstroms)
 Number     Number       Type             X           Y           Z
 ---------------------------------------------------------------------
      1          8           0        0.000000    0.000000    0.137445
      2          1           0        0.000000    0.668881   -0.549780
      3          1           0       -0.000000   -0.668881   -0.549780
 ---------------------------------------------------------------------
 Rotational constants (GHZ):         597.7904230         560.4075905         289.2478546
 Leave Link  202 at Wed Feb  8 14:48:46 2023, MaxMem=   754974720 cpu:               0.1 elap:               0.0
 (Enter /opt/cluster/programs/g16-c.01/g16/l301.exe)
 Standard basis: Aug-CC-pVDZ (5D, 7F)
 Ernie: Thresh=  0.10000D-02 Tol=  0.10000D-05 Strict=F.
 Ernie:  2 primitive shells out of 39 were deleted.
 There are    20 symmetry adapted cartesian basis functions of A1  symmetry.
 There are     4 symmetry adapted cartesian basis functions of A2  symmetry.
 There are     7 symmetry adapted cartesian basis functions of B1  symmetry.
 There are    12 symmetry adapted cartesian basis functions of B2  symmetry.
 There are    18 symmetry adapted basis functions of A1  symmetry.
 There are     4 symmetry adapted basis functions of A2  symmetry.
 There are     7 symmetry adapted basis functions of B1  symmetry.
 There are    12 symmetry adapted basis functions of B2  symmetry.
    41 basis functions,    65 primitive gaussians,    43 cartesian basis functions
     5 alpha electrons        5 beta electrons
       nuclear repulsion energy         9.2243857405 Hartrees.
 IExCor=    0 DFT=F Ex=HF Corr=None ExCW=0 ScaHFX=  1.000000
 ScaDFX=  1.000000  1.000000  1.000000  1.000000 ScalE2=  1.000000  1.000000
 IRadAn=      5 IRanWt=     -1 IRanGd=            0 ICorTp=0 IEmpDi=  4
 NAtoms=    3 NActive=    3 NUniq=    2 SFac= 2.25D+00 NAtFMM=   60 NAOKFM=F Big=F
 Integral buffers will be    131072 words long.
 Raffenetti 1 integral format.
 Two-electron integral symmetry is turned on.
 Leave Link  301 at Wed Feb  8 14:48:46 2023, MaxMem=   754974720 cpu:               0.1 elap:               0.0
 (Enter /opt/cluster/programs/g16-c.01/g16/l302.exe)
 NPDir=0 NMtPBC=     1 NCelOv=     1 NCel=       1 NClECP=     1 NCelD=      1
         NCelK=      1 NCelE2=     1 NClLst=     1 CellRange=     0.0.
 One-electron integrals computed using PRISM.
 One-electron integral symmetry used in STVInt
 NBasis=    41 RedAO= T EigKep=  1.86D-03  NBF=    18     4     7    12
 NBsUse=    41 1.00D-06 EigRej= -1.00D+00 NBFU=    18     4     7    12
 Leave Link  302 at Wed Feb  8 14:48:46 2023, MaxMem=   754974720 cpu:               0.4 elap:               0.1
 (Enter /opt/cluster/programs/g16-c.01/g16/l303.exe)
 DipDrv:  MaxL=1.
 Leave Link  303 at Wed Feb  8 14:48:46 2023, MaxMem=   754974720 cpu:               0.2 elap:               0.1
 (Enter /opt/cluster/programs/g16-c.01/g16/l401.exe)
 ExpMin= 2.97D-02 ExpMax= 1.17D+04 ExpMxC= 4.01D+02 IAcc=3 IRadAn=         5 AccDes= 0.00D+00
 Harris functional with IExCor=  205 and IRadAn=       5 diagonalized for initial guess.
 HarFok:  IExCor=  205 AccDes= 0.00D+00 IRadAn=         5 IDoV= 1 UseB2=F ITyADJ=14
 ICtDFT=  3500011 ScaDFX=  1.000000  1.000000  1.000000  1.000000
 FoFCou: FMM=F IPFlag=           0 FMFlag=      100000 FMFlg1=           0
         NFxFlg=           0 DoJE=T BraDBF=F KetDBF=T FulRan=T
         wScrn=  0.000000 ICntrl=       500 IOpCl=  0 I1Cent=   200000004 NGrid=           0
         NMat0=    1 NMatS0=      1 NMatT0=    0 NMatD0=    1 NMtDS0=    0 NMtDT0=    0
 Petite list used in FoFCou.
 Harris En= -76.1170328576630    
 JPrj=0 DoOrth=F DoCkMO=F.
 Initial guess orbital symmetries:
       Occupied  (A1) (A1) (B2) (A1) (B1)
       Virtual   (A1) (B2) (A1) (B1) (B2) (A1) (B2) (A1) (A1) (A2)
                 (B1) (B2) (A1) (B2) (B2) (A1) (B1) (A1) (A2) (A1)
                 (B1) (B2) (A1) (A2) (B2) (A1) (B1) (B2) (A1) (B2)
                 (A1) (B1) (A1) (A2) (A1) (B2)
 The electronic state of the initial guess is 1-A1.
 Leave Link  401 at Wed Feb  8 14:48:46 2023, MaxMem=   754974720 cpu:               0.4 elap:               0.1
 (Enter /opt/cluster/programs/g16-c.01/g16/l502.exe)
 Keep R1 ints in memory in symmetry-blocked form, NReq=1211502.
 FoFCou: FMM=F IPFlag=           0 FMFlag=           0 FMFlg1=           0
         NFxFlg=           0 DoJE=F BraDBF=F KetDBF=F FulRan=T
         wScrn=  0.000000 ICntrl=       600 IOpCl=  0 I1Cent=           0 NGrid=           0
         NMat0=    1 NMatS0=    861 NMatT0=    0 NMatD0=    1 NMtDS0=    0 NMtDT0=    0
 Petite list used in FoFCou.
 Closed shell SCF:
 Using DIIS extrapolation, IDIIS=  1040.
 NGot=   754974720 LenX=   754868251 LenY=   754865961
 Requested convergence on RMS density matrix=1.00D-08 within 200 cycles.
 Requested convergence on MAX density matrix=1.00D-06.
 Requested convergence on             energy=1.00D-06.
 No special actions if energy rises.

 Cycle   1  Pass 1  IDiag  1:
 E= -75.9578307073939    
 DIIS: error= 4.98D-02 at cycle   1 NSaved=   1.
 NSaved= 1 IEnMin= 1 EnMin= -75.9578307073939     IErMin= 1 ErrMin= 4.98D-02
 ErrMax= 4.98D-02  0.00D+00 EMaxC= 1.00D-01 BMatC= 1.15D-01 BMatP= 1.15D-01
 IDIUse=3 WtCom= 5.02D-01 WtEn= 4.98D-01
 Coeff-Com:  0.100D+01
 Coeff-En:   0.100D+01
 Coeff:      0.100D+01
 Gap=     0.462 Goal=   None    Shift=    0.000
 GapD=    0.462 DampG=2.000 DampE=0.500 DampFc=1.0000 IDamp=-1.
 RMSDP=6.27D-03 MaxDP=1.15D-01              OVMax= 1.22D-01

 Cycle   2  Pass 1  IDiag  1:
 E= -76.0007872090169     Delta-E=       -0.042956501623 Rises=F Damp=F
 DIIS: error= 4.01D-02 at cycle   2 NSaved=   2.
 NSaved= 2 IEnMin= 2 EnMin= -76.0007872090169     IErMin= 2 ErrMin= 4.01D-02
 ErrMax= 4.01D-02  0.00D+00 EMaxC= 1.00D-01 BMatC= 4.56D-02 BMatP= 1.15D-01
 IDIUse=3 WtCom= 5.99D-01 WtEn= 4.01D-01
 Coeff-Com:  0.376D+00 0.624D+00
 Coeff-En:   0.220D+00 0.780D+00
 Coeff:      0.314D+00 0.686D+00
 Gap=     0.564 Goal=   None    Shift=    0.000
 RMSDP=2.98D-03 MaxDP=5.41D-02 DE=-4.30D-02 OVMax= 5.86D-02

 Cycle   3  Pass 1  IDiag  1:
 E= -76.0322227250248     Delta-E=       -0.031435516008 Rises=F Damp=F
 DIIS: error= 4.44D-03 at cycle   3 NSaved=   3.
 NSaved= 3 IEnMin= 3 EnMin= -76.0322227250248     IErMin= 3 ErrMin= 4.44D-03
 ErrMax= 4.44D-03  0.00D+00 EMaxC= 1.00D-01 BMatC= 1.12D-03 BMatP= 4.56D-02
 IDIUse=3 WtCom= 9.56D-01 WtEn= 4.44D-02
 Coeff-Com: -0.387D-01 0.899D-01 0.949D+00
 Coeff-En:   0.000D+00 0.000D+00 0.100D+01
 Coeff:     -0.370D-01 0.859D-01 0.951D+00
 Gap=     0.546 Goal=   None    Shift=    0.000
 RMSDP=4.62D-04 MaxDP=8.32D-03 DE=-3.14D-02 OVMax= 9.44D-03

 Cycle   4  Pass 1  IDiag  1:
 E= -76.0330731325208     Delta-E=       -0.000850407496 Rises=F Damp=F
 DIIS: error= 6.80D-04 at cycle   4 NSaved=   4.
 NSaved= 4 IEnMin= 4 EnMin= -76.0330731325208     IErMin= 4 ErrMin= 6.80D-04
 ErrMax= 6.80D-04  0.00D+00 EMaxC= 1.00D-01 BMatC= 7.12D-06 BMatP= 1.12D-03
 IDIUse=3 WtCom= 9.93D-01 WtEn= 6.80D-03
 Coeff-Com:  0.988D-02-0.432D-01-0.346D+00 0.138D+01
 Coeff-En:   0.000D+00 0.000D+00 0.000D+00 0.100D+01
 Coeff:      0.982D-02-0.429D-01-0.344D+00 0.138D+01
 Gap=     0.547 Goal=   None    Shift=    0.000
 RMSDP=1.08D-04 MaxDP=1.23D-03 DE=-8.50D-04 OVMax= 1.96D-03

 Cycle   5  Pass 1  IDiag  1:
 E= -76.0330905050502     Delta-E=       -0.000017372529 Rises=F Damp=F
 DIIS: error= 1.77D-04 at cycle   5 NSaved=   5.
 NSaved= 5 IEnMin= 5 EnMin= -76.0330905050502     IErMin= 5 ErrMin= 1.77D-04
 ErrMax= 1.77D-04  0.00D+00 EMaxC= 1.00D-01 BMatC= 2.75D-07 BMatP= 7.12D-06
 IDIUse=3 WtCom= 9.98D-01 WtEn= 1.77D-03
 Coeff-Com: -0.130D-02 0.789D-02 0.624D-01-0.395D+00 0.133D+01
 Coeff-En:   0.000D+00 0.000D+00 0.000D+00 0.000D+00 0.100D+01
 Coeff:     -0.130D-02 0.787D-02 0.623D-01-0.394D+00 0.133D+01
 Gap=     0.547 Goal=   None    Shift=    0.000
 RMSDP=2.35D-05 MaxDP=4.03D-04 DE=-1.74D-05 OVMax= 5.48D-04

 Cycle   6  Pass 1  IDiag  1:
 E= -76.0330913097940     Delta-E=       -0.000000804744 Rises=F Damp=F
 DIIS: error= 2.57D-05 at cycle   6 NSaved=   6.
 NSaved= 6 IEnMin= 6 EnMin= -76.0330913097940     IErMin= 6 ErrMin= 2.57D-05
 ErrMax= 2.57D-05  0.00D+00 EMaxC= 1.00D-01 BMatC= 8.48D-09 BMatP= 2.75D-07
 IDIUse=1 WtCom= 1.00D+00 WtEn= 0.00D+00
 Coeff-Com: -0.192D-03 0.568D-03 0.388D-02 0.636D-02-0.226D+00 0.122D+01
 Coeff:     -0.192D-03 0.568D-03 0.388D-02 0.636D-02-0.226D+00 0.122D+01
 Gap=     0.547 Goal=   None    Shift=    0.000
 RMSDP=3.29D-06 MaxDP=7.34D-05 DE=-8.05D-07 OVMax= 9.87D-05

 Cycle   7  Pass 1  IDiag  1:
 E= -76.0330913332484     Delta-E=       -0.000000023454 Rises=F Damp=F
 DIIS: error= 4.21D-06 at cycle   7 NSaved=   7.
 NSaved= 7 IEnMin= 7 EnMin= -76.0330913332484     IErMin= 7 ErrMin= 4.21D-06
 ErrMax= 4.21D-06  0.00D+00 EMaxC= 1.00D-01 BMatC= 3.68D-10 BMatP= 8.48D-09
 IDIUse=1 WtCom= 1.00D+00 WtEn= 0.00D+00
 Coeff-Com:  0.113D-03-0.560D-03-0.450D-02 0.220D-01-0.260D-01-0.226D+00
 Coeff-Com:  0.123D+01
 Coeff:      0.113D-03-0.560D-03-0.450D-02 0.220D-01-0.260D-01-0.226D+00
 Coeff:      0.123D+01
 Gap=     0.547 Goal=   None    Shift=    0.000
 RMSDP=6.83D-07 MaxDP=9.49D-06 DE=-2.35D-08 OVMax= 1.68D-05

 Cycle   8  Pass 1  IDiag  1:
 E= -76.0330913340797     Delta-E=       -0.000000000831 Rises=F Damp=F
 DIIS: error= 6.34D-07 at cycle   8 NSaved=   8.
 NSaved= 8 IEnMin= 8 EnMin= -76.0330913340797     IErMin= 8 ErrMin= 6.34D-07
 ErrMax= 6.34D-07  0.00D+00 EMaxC= 1.00D-01 BMatC= 8.17D-12 BMatP= 3.68D-10
 IDIUse=1 WtCom= 1.00D+00 WtEn= 0.00D+00
 Coeff-Com: -0.218D-04 0.119D-03 0.994D-03-0.572D-02 0.124D-01 0.266D-01
 Coeff-Com: -0.335D+00 0.130D+01
 Coeff:     -0.218D-04 0.119D-03 0.994D-03-0.572D-02 0.124D-01 0.266D-01
 Coeff:     -0.335D+00 0.130D+01
 Gap=     0.547 Goal=   None    Shift=    0.000
 RMSDP=1.56D-07 MaxDP=2.10D-06 DE=-8.31D-10 OVMax= 2.74D-06

 Cycle   9  Pass 1  IDiag  1:
 E= -76.0330913341014     Delta-E=       -0.000000000022 Rises=F Damp=F
 DIIS: error= 9.21D-08 at cycle   9 NSaved=   9.
 NSaved= 9 IEnMin= 9 EnMin= -76.0330913341014     IErMin= 9 ErrMin= 9.21D-08
 ErrMax= 9.21D-08  0.00D+00 EMaxC= 1.00D-01 BMatC= 2.30D-13 BMatP= 8.17D-12
 IDIUse=1 WtCom= 1.00D+00 WtEn= 0.00D+00
 Coeff-Com:  0.310D-05-0.178D-04-0.164D-03 0.108D-02-0.282D-02-0.246D-02
 Coeff-Com:  0.684D-01-0.366D+00 0.130D+01
 Coeff:      0.310D-05-0.178D-04-0.164D-03 0.108D-02-0.282D-02-0.246D-02
 Coeff:      0.684D-01-0.366D+00 0.130D+01
 Gap=     0.547 Goal=   None    Shift=    0.000
 RMSDP=2.23D-08 MaxDP=2.61D-07 DE=-2.16D-11 OVMax= 3.76D-07

 Cycle  10  Pass 1  IDiag  1:
 E= -76.0330913341020     Delta-E=       -0.000000000001 Rises=F Damp=F
 DIIS: error= 2.10D-08 at cycle  10 NSaved=  10.
 NSaved=10 IEnMin=10 EnMin= -76.0330913341020     IErMin=10 ErrMin= 2.10D-08
 ErrMax= 2.10D-08  0.00D+00 EMaxC= 1.00D-01 BMatC= 1.07D-14 BMatP= 2.30D-13
 IDIUse=1 WtCom= 1.00D+00 WtEn= 0.00D+00
 Coeff-Com: -0.321D-06 0.213D-05 0.260D-04-0.223D-03 0.747D-03-0.350D-03
 Coeff-Com: -0.142D-01 0.956D-01-0.532D+00 0.145D+01
 Coeff:     -0.321D-06 0.213D-05 0.260D-04-0.223D-03 0.747D-03-0.350D-03
 Coeff:     -0.142D-01 0.956D-01-0.532D+00 0.145D+01
 Gap=     0.547 Goal=   None    Shift=    0.000
 RMSDP=5.70D-09 MaxDP=6.02D-08 DE=-5.97D-13 OVMax= 1.25D-07

 SCF Done:  E(RHF) =  -76.0330913341     A.U. after   10 cycles
            NFock= 10  Conv=0.57D-08     -V/T= 2.0012
 KE= 7.594443625769D+01 PE=-1.989241172593D+02 EE= 3.772220392698D+01
 Leave Link  502 at Wed Feb  8 14:48:46 2023, MaxMem=   754974720 cpu:               0.5 elap:               0.1
 (Enter /opt/cluster/programs/g16-c.01/g16/l801.exe)
 Windowed orbitals will be sorted by symmetry type.
 ExpMin= 2.97D-02 ExpMax= 1.17D+04 ExpMxC= 4.01D+02 IAcc=3 IRadAn=         5 AccDes= 0.00D+00
 HarFok:  IExCor=  205 AccDes= 0.00D+00 IRadAn=         5 IDoV=-2 UseB2=F ITyADJ=14
 ICtDFT= 12500011 ScaDFX=  1.000000  1.000000  1.000000  1.000000
 Largest valence mixing into a core orbital is  6.23D-05
 Largest core mixing into a valence orbital is  1.72D-05
 Range of M.O.s used for correlation:     2    41
 NBasis=    41 NAE=     5 NBE=     5 NFC=     1 NFV=     0
 NROrb=     40 NOA=     4 NOB=     4 NVA=    36 NVB=    36

 **** Warning!!: The largest alpha MO coefficient is  0.11078947D+02

 Leave Link  801 at Wed Feb  8 14:48:46 2023, MaxMem=   754974720 cpu:               0.2 elap:               0.1
 (Enter /opt/cluster/programs/g16-c.01/g16/l804.exe)
 Closed-shell transformation, MDV=   754974720 ITran=4 ISComp=2.
 Unit  1 TFree=         57018 TCopy=        140846.
 Semi-Direct transformation.
 ModeAB=           4 MOrb=             4 LenV=     754769467
 LASXX=        30213 LTotXX=       30213 LenRXX=       63236
 LTotAB=       33023 MaxLAS=      110560 LenRXY=           0
 NonZer=       93449 LenScr=      785920 LnRSAI=      110560
 LnScr1=      785920 LExtra=           0 Total=      1745636
 MaxDsk=          -1 SrtSym=           T ITran=            4
 DoSDTr:  NPSUse=  4
 JobTyp=0 Pass  1:  I=   1 to   4.
 (rs|ai) integrals will be sorted in core.
 Complete sort for first half transformation.
 First half transformation complete.
 Complete sort for second half transformation.
 Second half transformation complete.
 Spin components of T(2) and E(2):
     alpha-alpha T2 =       0.7868170317D-02 E2=     -0.2822199506D-01
     alpha-beta  T2 =       0.4431172683D-01 E2=     -0.1647436264D+00
     beta-beta   T2 =       0.7868170317D-02 E2=     -0.2822199506D-01
 ANorm=    0.1029586357D+01
 E2 =    -0.2211876165D+00 EUMP2 =    -0.76254278950591D+02
 Leave Link  804 at Wed Feb  8 14:48:47 2023, MaxMem=   754974720 cpu:               0.3 elap:               0.1
 (Enter /opt/cluster/programs/g16-c.01/g16/l913.exe)
 CIDS:  MDV=   754974720.
 Frozen-core window:  NFC=   1 NFV=   0.
 IFCWin=0 IBDFC=1 NFBD=     0     0 NFCmp=     0     0 NFFFC=     0     0
 Using DD3R+UMP44R for 1st iteration.
 Using DD4RQ for 2nd and later iterations.
 Keep R2 and R3 ints in memory in symmetry-blocked form, NReq=1214278.
 FoFCou: FMM=F IPFlag=           0 FMFlag=           0 FMFlg1=           0
         NFxFlg=           0 DoJE=F BraDBF=F KetDBF=F FulRan=T
         wScrn=  0.000000 ICntrl=       600 IOpCl=  0 I1Cent=           0 NGrid=           0
         NMat0=    1 NMatS0=    861 NMatT0=    0 NMatD0=    1 NMtDS0=    0 NMtDT0=    0
 Petite list used in FoFCou.
 CIDS: In Core Option IDoMem=           1.
 CCSD(T)
 =======
 Iterations=  50 Convergence= 0.100D-06
 Produce multiple copies of IABC intergrals
 Iteration Nr.   1
 **********************
 DD1Dir will call FoFMem   1 times, MxPair=        20
 NAB=    10 NAA=     0 NBB=     0.
 MP4(R+Q)=  0.25494147D-02
 Maximum subspace dimension=  5
 A-vector RMS=  5.4701645D-03 Max=  1.7047828D-02 conv= 1.00D-05.
 RLE energy=       -0.2228863750
 E3=       -0.43270809D-02        EUMP3=      -0.76258606031D+02
 E4(DQ)=   -0.15065918D-02        UMP4(DQ)=   -0.76260112623D+02
 E4(SDQ)=  -0.33147998D-02        UMP4(SDQ)=  -0.76261920831D+02
 VARIATIONAL ENERGIES WITH THE FIRST-ORDER WAVEFUNCTION:
 DE(Corr)= -0.22287347     E(Corr)=     -76.255964800    
 NORM(A)=   0.10304537D+01
 Iteration Nr.   2
 **********************
 DD1Dir will call FoFMem   1 times, MxPair=        20
 NAB=    10 NAA=     0 NBB=     0.
 A-vector RMS=  6.4974438D-04 Max=  3.0088469D-03 conv= 1.00D-05.
 RLE energy=       -0.2281804623
 DE(Corr)= -0.22757458     E(CORR)=     -76.260665910     Delta=-4.70D-03
 NORM(A)=   0.10327083D+01
 Iteration Nr.   3
 **********************
 DD1Dir will call FoFMem   1 times, MxPair=        20
 NAB=    10 NAA=     0 NBB=     0.
 A-vector RMS=  7.5014151D-04 Max=  2.8452107D-03 conv= 1.00D-05.
 RLE energy=       -0.2285634836
 DE(Corr)= -0.22812858     E(CORR)=     -76.261219918     Delta=-5.54D-04
 NORM(A)=   0.10332448D+01
 Iteration Nr.   4
 **********************
 DD1Dir will call FoFMem   1 times, MxPair=        20
 NAB=    10 NAA=     0 NBB=     0.
 A-vector RMS=  9.8561823D-05 Max=  3.5670648D-04 conv= 1.00D-05.
 RLE energy=       -0.2286031054
 DE(Corr)= -0.22857166     E(CORR)=     -76.261662994     Delta=-4.43D-04
 NORM(A)=   0.10333629D+01
 Iteration Nr.   5
 **********************
 DD1Dir will call FoFMem   1 times, MxPair=        20
 NAB=    10 NAA=     0 NBB=     0.
 A-vector RMS=  3.6626916D-05 Max=  1.6071574D-04 conv= 1.00D-05.
 RLE energy=       -0.2286094065
 DE(Corr)= -0.22860555     E(CORR)=     -76.261696889     Delta=-3.39D-05
 NORM(A)=   0.10333812D+01
 Iteration Nr.   6
 **********************
 DD1Dir will call FoFMem   1 times, MxPair=        20
 NAB=    10 NAA=     0 NBB=     0.
 A-vector RMS=  1.0604535D-05 Max=  4.3986188D-05 conv= 1.00D-05.
 RLE energy=       -0.2286066773
 DE(Corr)= -0.22860781     E(CORR)=     -76.261699142     Delta=-2.25D-06
 NORM(A)=   0.10333828D+01
 Iteration Nr.   7
 **********************
 DD1Dir will call FoFMem   1 times, MxPair=        20
 NAB=    10 NAA=     0 NBB=     0.
 A-vector RMS=  3.5488240D-06 Max=  1.2669376D-05 conv= 1.00D-05.
 RLE energy=       -0.2286071930
 DE(Corr)= -0.22860783     E(CORR)=     -76.261699169     Delta=-2.66D-08
 NORM(A)=   0.10333833D+01
 Iteration Nr.   8
 **********************
 DD1Dir will call FoFMem   1 times, MxPair=        20
 NAB=    10 NAA=     0 NBB=     0.
 A-vector RMS=  1.2123653D-06 Max=  5.5907433D-06 conv= 1.00D-05.
 RLE energy=       -0.2286074349
 DE(Corr)= -0.22860751     E(CORR)=     -76.261698847     Delta= 3.21D-07
 NORM(A)=   0.10333837D+01
 Iteration Nr.   9
 **********************
 DD1Dir will call FoFMem   1 times, MxPair=        20
 NAB=    10 NAA=     0 NBB=     0.
 A-vector RMS=  2.4874117D-07 Max=  1.0275796D-06 conv= 1.00D-05.
 RLE energy=       -0.2286076354
 DE(Corr)= -0.22860765     E(CORR)=     -76.261698980     Delta=-1.32D-07
 NORM(A)=   0.10333838D+01
 Iteration Nr.  10
 **********************
 DD1Dir will call FoFMem   1 times, MxPair=        20
 NAB=    10 NAA=     0 NBB=     0.
 A-vector RMS=  1.1262842D-07 Max=  4.3198002D-07 conv= 1.00D-05.
 RLE energy=       -0.2286076719
 DE(Corr)= -0.22860766     E(CORR)=     -76.261698991     Delta=-1.12D-08
 NORM(A)=   0.10333839D+01
 CI/CC converged in   10 iterations to DelEn=-1.12D-08 Conv= 1.00D-07 ErrA1= 1.13D-07 Conv= 1.00D-05
 Wavefunction amplitudes converged. E(Corr)=     -76.261698991    
 Largest amplitude= 3.54D-02
 IPart=  4 IA=    3   10.95% done.
 IPart=  4 IA=    5   21.27% done.
 IPart=  2 IA=    7   30.95% done.
 IPart=  4 IA=    9   40.00% done.
 IPart=  3 IA=   12   52.38% done.
 IPart=  2 IA=   15   63.33% done.
 IPart=  1 IA=   18   72.86% done.
 IPart=  1 IA=   21   80.95% done.
 IPart=  4 IA=   26   91.27% done.
 Time for triples=        0.84 seconds.
 T4(CCSD)= -0.57846237D-02
 T5(CCSD)=  0.41217354D-03
 CCSD(T)= -0.76267071441D+02
 Discarding MO integrals.
 Leave Link  913 at Wed Feb  8 14:48:47 2023, MaxMem=   754974720 cpu:               1.6 elap:               0.4
 (Enter /opt/cluster/programs/g16-c.01/g16/l601.exe)
 Copying SCF densities to generalized density rwf, IOpCl= 0 IROHF=0.

 **********************************************************************

            Population analysis using the SCF Density.

 **********************************************************************

 Orbital symmetries:
       Occupied  (A1) (A1) (B2) (A1) (B1)
       Virtual   (A1) (B2) (A1) (B1) (A1) (B2) (B2) (A1) (A1) (A2)
                 (B1) (B2) (A1) (B2) (B2) (A1) (B1) (A1) (A2) (A1)
                 (B2) (B1) (A1) (A2) (B2) (B1) (A1) (B2) (A1) (B2)
                 (A1) (B1) (A1) (A2) (A1) (B2)
 The electronic state is 1-A1.
 Alpha  occ. eigenvalues --  -20.58392  -1.36861  -0.68365  -0.61779  -0.51366
 Alpha virt. eigenvalues --    0.03380   0.05934   0.17171   0.19869   0.22314
 Alpha virt. eigenvalues --    0.23599   0.28378   0.35706   0.37556   0.39512
 Alpha virt. eigenvalues --    0.41155   0.55417   0.64140   0.66054   0.77708
 Alpha virt. eigenvalues --    0.96123   1.11233   1.12315   1.14790   1.27854
 Alpha virt. eigenvalues --    1.43619   1.46227   1.60990   1.99146   2.04618
 Alpha virt. eigenvalues --    2.13368   2.14192   2.52812   2.66017   2.66677
 Alpha virt. eigenvalues --    3.05824   3.68028   3.69062   3.69658   4.00197
 Alpha virt. eigenvalues --    4.30659
          Condensed to atoms (all electrons):
               1          2          3
     1  O    7.644608   0.323587   0.323587
     2  H    0.323587   0.541318  -0.010796
     3  H    0.323587  -0.010796   0.541318
 Mulliken charges:
               1
     1  O   -0.291782
     2  H    0.145891
     3  H    0.145891
 Sum of Mulliken charges =   0.00000
 Mulliken charges with hydrogens summed into heavy atoms:
               1
     1  O    0.000000
 Electronic spatial extent (au):  <R**2>=             19.5198
 Charge=              0.0000 electrons
 Dipole moment (field-independent basis, Debye):
    X=             -0.0000    Y=              0.0000    Z=             -2.2432  Tot=              2.2432
 Quadrupole moment (field-independent basis, Debye-Ang):
   XX=             -7.5665   YY=             -4.9861   ZZ=             -5.7748
   XY=              0.0000   XZ=              0.0000   YZ=             -0.0000
 Traceless Quadrupole moment (field-independent basis, Debye-Ang):
   XX=             -1.4573   YY=              1.1230   ZZ=              0.3343
   XY=              0.0000   XZ=              0.0000   YZ=             -0.0000
 Octapole moment (field-independent basis, Debye-Ang**2):
  XXX=              0.0000  YYY=              0.0000  ZZZ=             -1.5145  XYY=             -0.0000
  XXY=             -0.0000  XXZ=             -0.3270  XZZ=              0.0000  YZZ=              0.0000
  YYZ=             -1.2720  XYZ=             -0.0000
 Hexadecapole moment (field-independent basis, Debye-Ang**3):
 XXXX=             -6.7187 YYYY=             -6.4526 ZZZZ=             -7.3466 XXXY=             -0.0000
 XXXZ=             -0.0000 YYYX=             -0.0000 YYYZ=             -0.0000 ZZZX=             -0.0000
 ZZZY=             -0.0000 XXYY=             -2.3759 XXZZ=             -2.4351 YYZZ=             -1.8370
 XXYZ=              0.0000 YYXZ=              0.0000 ZZXY=              0.0000
 N-N= 9.224385740520D+00 E-N=-1.989241174535D+02  KE= 7.594443625769D+01
 Symmetry A1   KE= 6.785144798667D+01
 Symmetry A2   KE= 3.671894824545D-33
 Symmetry B1   KE= 4.458715069926D+00
 Symmetry B2   KE= 3.634273201094D+00
 Leave Link  601 at Wed Feb  8 14:48:47 2023, MaxMem=   754974720 cpu:               0.4 elap:               0.1
 (Enter /opt/cluster/programs/g16-c.01/g16/l9999.exe)
 Unable to Open any file for archive entry.
 1\1\GINC-NODE66\SP\RCCSD(T)-FC\Aug-CC-pVDZ\H2O1\BOITTIER\08-Feb-2023\0
 \\#P CCSD(T)/aug-cc-pVDZ scf(maxcycle=200)\\Gaussian input\\0,1\O,0,0.
 ,0.11751,0.\H,0,0.7578497316,-0.4701504329,0.\H,0,-0.5669461006,-0.655
 9582404,0.\\Version=ES64L-G16RevC.01\State=1-A1\HF=-76.0330913\MP2=-76
 .254279\MP3=-76.258606\MP4D=-76.262662\MP4DQ=-76.2601126\MP4SDQ=-76.26
 19208\CCSD=-76.261699\CCSD(T)=-76.2670714\RMSD=5.695e-09\PG=C02V [C2(O
 1),SGV(H2)]\\@
 The archive entry for this job was punched.


 When I told the people of Northern Ireland that I was
 an atheist, a woman in the audience stood up and said,
 "Yes, but is it the God of the Catholics or the God
 of the Protestants in whom you don't believe?"
                               -- Quentin Crisp
 Job cpu time:       0 days  0 hours  0 minutes  5.3 seconds.
 Elapsed time:       0 days  0 hours  0 minutes  1.5 seconds.
 File lengths (MBytes):  RWF=     20 Int=      0 D2E=      0 Chk=      1 Scr=      1
 Normal termination of Gaussian 16 at Wed Feb  8 14:48:48 2023.
