 Entering Gaussian System, Link 0=/opt/cluster/programs/g16-c.01/g16/g16
 Input=/scratch/boittier/jobs/tmp.7261677/gaussian_13_water_ccsdt_atz.com
 Output=/scratch/boittier/jobs/tmp.7261677/gaussian_13_water_ccsdt_atz.out
 Initial command:
 /opt/cluster/programs/g16-c.01/g16/l1.exe "/scratch/boittier/jobs/tmp.7261677/Gau-49419.inp" -scrdir="/scratch/boittier/jobs/tmp.7261677/"
 Entering Link 1 = /opt/cluster/programs/g16-c.01/g16/l1.exe PID=     49420.
  
 Copyright (c) 1988-2019, Gaussian, Inc.  All Rights Reserved.
  
 This is part of the Gaussian(R) 16 program.  It is based on
 the Gaussian(R) 09 system (copyright 2009, Gaussian, Inc.),
 the Gaussian(R) 03 system (copyright 2003, Gaussian, Inc.),
 the Gaussian(R) 98 system (copyright 1998, Gaussian, Inc.),
 the Gaussian(R) 94 system (copyright 1995, Gaussian, Inc.),
 the Gaussian 92(TM) system (copyright 1992, Gaussian, Inc.),
 the Gaussian 90(TM) system (copyright 1990, Gaussian, Inc.),
 the Gaussian 88(TM) system (copyright 1988, Gaussian, Inc.),
 the Gaussian 86(TM) system (copyright 1986, Carnegie Mellon
 University), and the Gaussian 82(TM) system (copyright 1983,
 Carnegie Mellon University). Gaussian is a federally registered
 trademark of Gaussian, Inc.
  
 This software contains proprietary and confidential information,
 including trade secrets, belonging to Gaussian, Inc.
  
 This software is provided under written license and may be
 used, copied, transmitted, or stored only in accord with that
 written license.
  
 The following legend is applicable only to US Government
 contracts under FAR:
  
                    RESTRICTED RIGHTS LEGEND
  
 Use, reproduction and disclosure by the US Government is
 subject to restrictions as set forth in subparagraphs (a)
 and (c) of the Commercial Computer Software - Restricted
 Rights clause in FAR 52.227-19.
  
 Gaussian, Inc.
 340 Quinnipiac St., Bldg. 40, Wallingford CT 06492
  
  
 ---------------------------------------------------------------
 Warning -- This program may not be used in any manner that
 competes with the business of Gaussian, Inc. or will provide
 assistance to any competitor of Gaussian, Inc.  The licensee
 of this program is prohibited from giving any competitor of
 Gaussian, Inc. access to this program.  By using this program,
 the user acknowledges that Gaussian, Inc. is engaged in the
 business of creating and licensing software in the field of
 computational chemistry and represents and warrants to the
 licensee that it is not a competitor of Gaussian, Inc. and that
 it will not use this program in any manner prohibited above.
 ---------------------------------------------------------------
  

 Cite this work as:
 Gaussian 16, Revision C.01,
 M. J. Frisch, G. W. Trucks, H. B. Schlegel, G. E. Scuseria, 
 M. A. Robb, J. R. Cheeseman, G. Scalmani, V. Barone, 
 G. A. Petersson, H. Nakatsuji, X. Li, M. Caricato, A. V. Marenich, 
 J. Bloino, B. G. Janesko, R. Gomperts, B. Mennucci, H. P. Hratchian, 
 J. V. Ortiz, A. F. Izmaylov, J. L. Sonnenberg, D. Williams-Young, 
 F. Ding, F. Lipparini, F. Egidi, J. Goings, B. Peng, A. Petrone, 
 T. Henderson, D. Ranasinghe, V. G. Zakrzewski, J. Gao, N. Rega, 
 G. Zheng, W. Liang, M. Hada, M. Ehara, K. Toyota, R. Fukuda, 
 J. Hasegawa, M. Ishida, T. Nakajima, Y. Honda, O. Kitao, H. Nakai, 
 T. Vreven, K. Throssell, J. A. Montgomery, Jr., J. E. Peralta, 
 F. Ogliaro, M. J. Bearpark, J. J. Heyd, E. N. Brothers, K. N. Kudin, 
 V. N. Staroverov, T. A. Keith, R. Kobayashi, J. Normand, 
 K. Raghavachari, A. P. Rendell, J. C. Burant, S. S. Iyengar, 
 J. Tomasi, M. Cossi, J. M. Millam, M. Klene, C. Adamo, R. Cammi, 
 J. W. Ochterski, R. L. Martin, K. Morokuma, O. Farkas, 
 J. B. Foresman, and D. J. Fox, Gaussian, Inc., Wallingford CT, 2019.
 
 ******************************************
 Gaussian 16:  ES64L-G16RevC.01  3-Jul-2019
                 8-Feb-2023 
 ******************************************
 %nproc=4
 Will use up to    4 processors via shared memory.
 %mem=5760MB
 %chk=gaussian_13_water_ccsdt_atz.chk
 ----------------------------------------
 #P CCSD(T)/aug-cc-pVTZ scf(maxcycle=200)
 ----------------------------------------
 1/38=1,172=1/1;
 2/12=2,17=6,18=5,40=1/2;
 3/5=16,6=1,7=10,11=9,25=1,30=1/1,2,3;
 4//1;
 5/5=2,7=200,38=5/2;
 8/6=4,9=120000,10=1/1,4;
 9/5=7,14=2/13;
 6/7=2,8=2,9=2,10=2/1;
 99/5=1,9=1/99;
 Leave Link    1 at Wed Feb  8 13:48:22 2023, MaxMem=   754974720 cpu:               0.1 elap:               0.0
 (Enter /opt/cluster/programs/g16-c.01/g16/l101.exe)
 --------------
 Gaussian input
 --------------
 Symbolic Z-matrix:
 Charge =  0 Multiplicity = 1
 O                     0.        0.11751   0. 
 H                     0.71834  -0.43951   0. 
 H                    -0.7729   -0.36094   0. 
 
 ITRead=  0  0  0
 MicOpt= -1 -1 -1
 NAtoms=      3 NQM=        3 NQMF=       0 NMMI=      0 NMMIF=      0
                NMic=       0 NMicF=      0.
                    Isotopes and Nuclear Properties:
 (Nuclear quadrupole moments (NQMom) in fm**2, nuclear magnetic moments (NMagM)
  in nuclear magnetons)

  Atom         1           2           3
 IAtWgt=          16           1           1
 AtmWgt=  15.9949146   1.0078250   1.0078250
 NucSpn=           0           1           1
 AtZEff=  -0.0000000  -0.0000000  -0.0000000
 NQMom=    0.0000000   0.0000000   0.0000000
 NMagM=    0.0000000   2.7928460   2.7928460
 AtZNuc=   8.0000000   1.0000000   1.0000000
 Leave Link  101 at Wed Feb  8 13:48:22 2023, MaxMem=   754974720 cpu:               0.6 elap:               0.2
 (Enter /opt/cluster/programs/g16-c.01/g16/l202.exe)
                          Input orientation:                          
 ---------------------------------------------------------------------
 Center     Atomic      Atomic             Coordinates (Angstroms)
 Number     Number       Type             X           Y           Z
 ---------------------------------------------------------------------
      1          8           0        0.000000    0.117510    0.000000
      2          1           0        0.718337   -0.439511    0.000000
      3          1           0       -0.772896   -0.360938    0.000000
 ---------------------------------------------------------------------
                    Distance matrix (angstroms):
                    1          2          3
     1  O    0.000000
     2  H    0.909000   0.000000
     3  H    0.909000   1.493302   0.000000
 Stoichiometry    H2O
 Framework group  C2V[C2(O),SGV(H2)]
 Deg. of freedom     2
 Full point group                 C2V     NOp   4
 Largest Abelian subgroup         C2V     NOp   4
 Largest concise Abelian subgroup C2      NOp   2
                         Standard orientation:                         
 ---------------------------------------------------------------------
 Center     Atomic      Atomic             Coordinates (Angstroms)
 Number     Number       Type             X           Y           Z
 ---------------------------------------------------------------------
      1          8           0       -0.000000    0.000000    0.103691
      2          1           0       -0.000000    0.746651   -0.414762
      3          1           0       -0.000000   -0.746651   -0.414762
 ---------------------------------------------------------------------
 Rotational constants (GHZ):        1050.3374664         449.7455261         314.9056277
 Leave Link  202 at Wed Feb  8 13:48:22 2023, MaxMem=   754974720 cpu:               0.0 elap:               0.0
 (Enter /opt/cluster/programs/g16-c.01/g16/l301.exe)
 Standard basis: Aug-CC-pVTZ (5D, 7F)
 Ernie: Thresh=  0.10000D-02 Tol=  0.10000D-05 Strict=F.
 Ernie:  3 primitive shells out of 52 were deleted.
 There are    42 symmetry adapted cartesian basis functions of A1  symmetry.
 There are    12 symmetry adapted cartesian basis functions of A2  symmetry.
 There are    20 symmetry adapted cartesian basis functions of B1  symmetry.
 There are    31 symmetry adapted cartesian basis functions of B2  symmetry.
 There are    35 symmetry adapted basis functions of A1  symmetry.
 There are    12 symmetry adapted basis functions of A2  symmetry.
 There are    18 symmetry adapted basis functions of B1  symmetry.
 There are    27 symmetry adapted basis functions of B2  symmetry.
    92 basis functions,   126 primitive gaussians,   105 cartesian basis functions
     5 alpha electrons        5 beta electrons
       nuclear repulsion energy         9.6688175701 Hartrees.
 IExCor=    0 DFT=F Ex=HF Corr=None ExCW=0 ScaHFX=  1.000000
 ScaDFX=  1.000000  1.000000  1.000000  1.000000 ScalE2=  1.000000  1.000000
 IRadAn=      5 IRanWt=     -1 IRanGd=            0 ICorTp=0 IEmpDi=  4
 NAtoms=    3 NActive=    3 NUniq=    2 SFac= 2.25D+00 NAtFMM=   60 NAOKFM=F Big=F
 Integral buffers will be    131072 words long.
 Raffenetti 1 integral format.
 Two-electron integral symmetry is turned on.
 Leave Link  301 at Wed Feb  8 13:48:22 2023, MaxMem=   754974720 cpu:               0.2 elap:               0.0
 (Enter /opt/cluster/programs/g16-c.01/g16/l302.exe)
 NPDir=0 NMtPBC=     1 NCelOv=     1 NCel=       1 NClECP=     1 NCelD=      1
         NCelK=      1 NCelE2=     1 NClLst=     1 CellRange=     0.0.
 One-electron integrals computed using PRISM.
 One-electron integral symmetry used in STVInt
 NBasis=    92 RedAO= T EigKep=  3.34D-04  NBF=    35    12    18    27
 NBsUse=    92 1.00D-06 EigRej= -1.00D+00 NBFU=    35    12    18    27
 Leave Link  302 at Wed Feb  8 13:48:23 2023, MaxMem=   754974720 cpu:               0.6 elap:               0.1
 (Enter /opt/cluster/programs/g16-c.01/g16/l303.exe)
 DipDrv:  MaxL=1.
 Leave Link  303 at Wed Feb  8 13:48:23 2023, MaxMem=   754974720 cpu:               0.2 elap:               0.1
 (Enter /opt/cluster/programs/g16-c.01/g16/l401.exe)
 ExpMin= 2.53D-02 ExpMax= 1.53D+04 ExpMxC= 5.22D+02 IAcc=3 IRadAn=         5 AccDes= 0.00D+00
 Harris functional with IExCor=  205 and IRadAn=       5 diagonalized for initial guess.
 HarFok:  IExCor=  205 AccDes= 0.00D+00 IRadAn=         5 IDoV= 1 UseB2=F ITyADJ=14
 ICtDFT=  3500011 ScaDFX=  1.000000  1.000000  1.000000  1.000000
 FoFCou: FMM=F IPFlag=           0 FMFlag=      100000 FMFlg1=           0
         NFxFlg=           0 DoJE=T BraDBF=F KetDBF=T FulRan=T
         wScrn=  0.000000 ICntrl=       500 IOpCl=  0 I1Cent=   200000004 NGrid=           0
         NMat0=    1 NMatS0=      1 NMatT0=    0 NMatD0=    1 NMtDS0=    0 NMtDT0=    0
 Petite list used in FoFCou.
 Harris En= -76.1534620526138    
 JPrj=0 DoOrth=F DoCkMO=F.
 Initial guess orbital symmetries:
       Occupied  (A1) (A1) (B2) (A1) (B1)
       Virtual   (A1) (B2) (A1) (B1) (A1) (B2) (B2) (A1) (A2) (A1)
                 (B1) (B2) (A1) (B2) (B2) (A1) (A1) (B1) (A2) (A1)
                 (B1) (A1) (B1) (B2) (A2) (B2) (A1) (B2) (A1) (B1)
                 (B2) (A1) (A2) (B2) (A2) (A1) (B1) (A1) (B2) (B2)
                 (A1) (B1) (A1) (A2) (A1) (B2) (B1) (A1) (B1) (B2)
                 (A1) (A2) (B2) (B2) (A1) (B1) (A2) (A1) (B2) (B1)
                 (A2) (A1) (B1) (B2) (A1) (B2) (B2) (A2) (B2) (A1)
                 (B1) (A1) (A1) (B2) (B1) (A1) (B1) (A1) (A2) (B1)
                 (A2) (B2) (A1) (B2) (A1) (B2) (A1)
 The electronic state of the initial guess is 1-A1.
 Leave Link  401 at Wed Feb  8 13:48:23 2023, MaxMem=   754974720 cpu:               0.8 elap:               0.2
 (Enter /opt/cluster/programs/g16-c.01/g16/l502.exe)
 Keep R1 ints in memory in symmetry-blocked form, NReq=11496777.
 FoFCou: FMM=F IPFlag=           0 FMFlag=           0 FMFlg1=           0
         NFxFlg=           0 DoJE=F BraDBF=F KetDBF=F FulRan=T
         wScrn=  0.000000 ICntrl=       600 IOpCl=  0 I1Cent=           0 NGrid=           0
         NMat0=    1 NMatS0=   4278 NMatT0=    0 NMatD0=    1 NMtDS0=    0 NMtDT0=    0
 Petite list used in FoFCou.
 Closed shell SCF:
 Using DIIS extrapolation, IDIIS=  1040.
 NGot=   754974720 LenX=   752607631 LenY=   752596165
 Requested convergence on RMS density matrix=1.00D-08 within 200 cycles.
 Requested convergence on MAX density matrix=1.00D-06.
 Requested convergence on             energy=1.00D-06.
 No special actions if energy rises.

 Cycle   1  Pass 1  IDiag  1:
 E= -75.9619101444334    
 DIIS: error= 6.80D-02 at cycle   1 NSaved=   1.
 NSaved= 1 IEnMin= 1 EnMin= -75.9619101444334     IErMin= 1 ErrMin= 6.80D-02
 ErrMax= 6.80D-02  0.00D+00 EMaxC= 1.00D-01 BMatC= 2.20D-01 BMatP= 2.20D-01
 IDIUse=3 WtCom= 3.20D-01 WtEn= 6.80D-01
 Coeff-Com:  0.100D+01
 Coeff-En:   0.100D+01
 Coeff:      0.100D+01
 Gap=     0.446 Goal=   None    Shift=    0.000
 GapD=    0.446 DampG=2.000 DampE=0.500 DampFc=1.0000 IDamp=-1.
 RMSDP=2.24D-03 MaxDP=5.19D-02              OVMax= 1.28D-01

 Cycle   2  Pass 1  IDiag  1:
 E= -76.0218162614008     Delta-E=       -0.059906116967 Rises=F Damp=F
 DIIS: error= 4.13D-02 at cycle   2 NSaved=   2.
 NSaved= 2 IEnMin= 2 EnMin= -76.0218162614008     IErMin= 2 ErrMin= 4.13D-02
 ErrMax= 4.13D-02  0.00D+00 EMaxC= 1.00D-01 BMatC= 6.09D-02 BMatP= 2.20D-01
 IDIUse=3 WtCom= 5.87D-01 WtEn= 4.13D-01
 Coeff-Com:  0.318D+00 0.682D+00
 Coeff-En:   0.167D+00 0.833D+00
 Coeff:      0.256D+00 0.744D+00
 Gap=     0.574 Goal=   None    Shift=    0.000
 RMSDP=1.31D-03 MaxDP=3.26D-02 DE=-5.99D-02 OVMax= 6.54D-02

 Cycle   3  Pass 1  IDiag  1:
 E= -76.0566431050568     Delta-E=       -0.034826843656 Rises=F Damp=F
 DIIS: error= 9.39D-03 at cycle   3 NSaved=   3.
 NSaved= 3 IEnMin= 3 EnMin= -76.0566431050568     IErMin= 3 ErrMin= 9.39D-03
 ErrMax= 9.39D-03  0.00D+00 EMaxC= 1.00D-01 BMatC= 3.20D-03 BMatP= 6.09D-02
 IDIUse=3 WtCom= 9.06D-01 WtEn= 9.39D-02
 Coeff-Com: -0.296D-01 0.156D+00 0.874D+00
 Coeff-En:   0.000D+00 0.000D+00 0.100D+01
 Coeff:     -0.268D-01 0.141D+00 0.886D+00
 Gap=     0.541 Goal=   None    Shift=    0.000
 RMSDP=2.28D-04 MaxDP=4.46D-03 DE=-3.48D-02 OVMax= 1.22D-02

 Cycle   4  Pass 1  IDiag  1:
 E= -76.0585494748750     Delta-E=       -0.001906369818 Rises=F Damp=F
 DIIS: error= 6.09D-04 at cycle   4 NSaved=   4.
 NSaved= 4 IEnMin= 4 EnMin= -76.0585494748750     IErMin= 4 ErrMin= 6.09D-04
 ErrMax= 6.09D-04  0.00D+00 EMaxC= 1.00D-01 BMatC= 1.29D-05 BMatP= 3.20D-03
 IDIUse=3 WtCom= 9.94D-01 WtEn= 6.09D-03
 Coeff-Com:  0.585D-02-0.521D-01-0.210D+00 0.126D+01
 Coeff-En:   0.000D+00 0.000D+00 0.000D+00 0.100D+01
 Coeff:      0.581D-02-0.518D-01-0.209D+00 0.125D+01
 Gap=     0.543 Goal=   None    Shift=    0.000
 RMSDP=3.13D-05 MaxDP=6.70D-04 DE=-1.91D-03 OVMax= 2.06D-03

 Cycle   5  Pass 1  IDiag  1:
 E= -76.0585676757733     Delta-E=       -0.000018200898 Rises=F Damp=F
 DIIS: error= 1.51D-04 at cycle   5 NSaved=   5.
 NSaved= 5 IEnMin= 5 EnMin= -76.0585676757733     IErMin= 5 ErrMin= 1.51D-04
 ErrMax= 1.51D-04  0.00D+00 EMaxC= 1.00D-01 BMatC= 4.90D-07 BMatP= 1.29D-05
 IDIUse=3 WtCom= 9.98D-01 WtEn= 1.51D-03
 Coeff-Com:  0.950D-04 0.381D-02 0.104D-01-0.313D+00 0.130D+01
 Coeff-En:   0.000D+00 0.000D+00 0.000D+00 0.000D+00 0.100D+01
 Coeff:      0.948D-04 0.381D-02 0.104D-01-0.312D+00 0.130D+01
 Gap=     0.543 Goal=   None    Shift=    0.000
 RMSDP=9.55D-06 MaxDP=1.86D-04 DE=-1.82D-05 OVMax= 6.62D-04

 Cycle   6  Pass 1  IDiag  1:
 E= -76.0585688397035     Delta-E=       -0.000001163930 Rises=F Damp=F
 DIIS: error= 1.91D-05 at cycle   6 NSaved=   6.
 NSaved= 6 IEnMin= 6 EnMin= -76.0585688397035     IErMin= 6 ErrMin= 1.91D-05
 ErrMax= 1.91D-05  0.00D+00 EMaxC= 1.00D-01 BMatC= 1.15D-08 BMatP= 4.90D-07
 IDIUse=1 WtCom= 1.00D+00 WtEn= 0.00D+00
 Coeff-Com: -0.171D-03 0.338D-03 0.186D-02 0.522D-01-0.380D+00 0.133D+01
 Coeff:     -0.171D-03 0.338D-03 0.186D-02 0.522D-01-0.380D+00 0.133D+01
 Gap=     0.543 Goal=   None    Shift=    0.000
 RMSDP=1.69D-06 MaxDP=3.78D-05 DE=-1.16D-06 OVMax= 1.23D-04

 Cycle   7  Pass 1  IDiag  1:
 E= -76.0585688729595     Delta-E=       -0.000000033256 Rises=F Damp=F
 DIIS: error= 3.16D-06 at cycle   7 NSaved=   7.
 NSaved= 7 IEnMin= 7 EnMin= -76.0585688729595     IErMin= 7 ErrMin= 3.16D-06
 ErrMax= 3.16D-06  0.00D+00 EMaxC= 1.00D-01 BMatC= 4.39D-10 BMatP= 1.15D-08
 IDIUse=1 WtCom= 1.00D+00 WtEn= 0.00D+00
 Coeff-Com:  0.251D-04-0.238D-03-0.842D-03 0.622D-02 0.853D-02-0.208D+00
 Coeff-Com:  0.119D+01
 Coeff:      0.251D-04-0.238D-03-0.842D-03 0.622D-02 0.853D-02-0.208D+00
 Coeff:      0.119D+01
 Gap=     0.543 Goal=   None    Shift=    0.000
 RMSDP=2.28D-07 MaxDP=5.26D-06 DE=-3.33D-08 OVMax= 1.86D-05

 Cycle   8  Pass 1  IDiag  1:
 E= -76.0585688739958     Delta-E=       -0.000000001036 Rises=F Damp=F
 DIIS: error= 7.96D-07 at cycle   8 NSaved=   8.
 NSaved= 8 IEnMin= 8 EnMin= -76.0585688739958     IErMin= 8 ErrMin= 7.96D-07
 ErrMax= 7.96D-07  0.00D+00 EMaxC= 1.00D-01 BMatC= 2.60D-11 BMatP= 4.39D-10
 IDIUse=1 WtCom= 1.00D+00 WtEn= 0.00D+00
 Coeff-Com:  0.656D-05 0.210D-04 0.444D-04-0.467D-02 0.223D-01-0.458D-01
 Coeff-Com: -0.240D+00 0.127D+01
 Coeff:      0.656D-05 0.210D-04 0.444D-04-0.467D-02 0.223D-01-0.458D-01
 Coeff:     -0.240D+00 0.127D+01
 Gap=     0.543 Goal=   None    Shift=    0.000
 RMSDP=7.39D-08 MaxDP=1.67D-06 DE=-1.04D-09 OVMax= 5.01D-06

 Cycle   9  Pass 1  IDiag  1:
 E= -76.0585688740625     Delta-E=       -0.000000000067 Rises=F Damp=F
 DIIS: error= 1.09D-07 at cycle   9 NSaved=   9.
 NSaved= 9 IEnMin= 9 EnMin= -76.0585688740625     IErMin= 9 ErrMin= 1.09D-07
 ErrMax= 1.09D-07  0.00D+00 EMaxC= 1.00D-01 BMatC= 3.18D-13 BMatP= 2.60D-11
 IDIUse=1 WtCom= 1.00D+00 WtEn= 0.00D+00
 Coeff-Com: -0.150D-05 0.767D-06 0.598D-05 0.659D-03-0.358D-02 0.111D-01
 Coeff-Com:  0.203D-01-0.233D+00 0.120D+01
 Coeff:     -0.150D-05 0.767D-06 0.598D-05 0.659D-03-0.358D-02 0.111D-01
 Coeff:      0.203D-01-0.233D+00 0.120D+01
 Gap=     0.543 Goal=   None    Shift=    0.000
 RMSDP=1.21D-08 MaxDP=2.72D-07 DE=-6.67D-11 OVMax= 5.50D-07

 Cycle  10  Pass 1  IDiag  1:
 E= -76.0585688740632     Delta-E=       -0.000000000001 Rises=F Damp=F
 DIIS: error= 1.92D-08 at cycle  10 NSaved=  10.
 NSaved=10 IEnMin=10 EnMin= -76.0585688740632     IErMin=10 ErrMin= 1.92D-08
 ErrMax= 1.92D-08  0.00D+00 EMaxC= 1.00D-01 BMatC= 8.46D-15 BMatP= 3.18D-13
 IDIUse=1 WtCom= 1.00D+00 WtEn= 0.00D+00
 Coeff-Com:  0.360D-06-0.596D-06-0.231D-05-0.131D-03 0.755D-03-0.276D-02
 Coeff-Com: -0.146D-02 0.486D-01-0.377D+00 0.133D+01
 Coeff:      0.360D-06-0.596D-06-0.231D-05-0.131D-03 0.755D-03-0.276D-02
 Coeff:     -0.146D-02 0.486D-01-0.377D+00 0.133D+01
 Gap=     0.543 Goal=   None    Shift=    0.000
 RMSDP=2.19D-09 MaxDP=4.44D-08 DE=-6.68D-13 OVMax= 6.78D-08

 SCF Done:  E(RHF) =  -76.0585688741     A.U. after   10 cycles
            NFock= 10  Conv=0.22D-08     -V/T= 1.9987
 KE= 7.615793384821D+01 PE=-2.000440490217D+02 EE= 3.815872872930D+01
 Leave Link  502 at Wed Feb  8 13:48:23 2023, MaxMem=   754974720 cpu:               2.0 elap:               0.5
 (Enter /opt/cluster/programs/g16-c.01/g16/l801.exe)
 Windowed orbitals will be sorted by symmetry type.
 ExpMin= 2.53D-02 ExpMax= 1.53D+04 ExpMxC= 5.22D+02 IAcc=3 IRadAn=         5 AccDes= 0.00D+00
 HarFok:  IExCor=  205 AccDes= 0.00D+00 IRadAn=         5 IDoV=-2 UseB2=F ITyADJ=14
 ICtDFT= 12500011 ScaDFX=  1.000000  1.000000  1.000000  1.000000
 Largest valence mixing into a core orbital is  1.08D-04
 Largest core mixing into a valence orbital is  1.57D-05
 Range of M.O.s used for correlation:     2    92
 NBasis=    92 NAE=     5 NBE=     5 NFC=     1 NFV=     0
 NROrb=     91 NOA=     4 NOB=     4 NVA=    87 NVB=    87

 **** Warning!!: The largest alpha MO coefficient is  0.17058330D+02

 Leave Link  801 at Wed Feb  8 13:48:24 2023, MaxMem=   754974720 cpu:               0.3 elap:               0.1
 (Enter /opt/cluster/programs/g16-c.01/g16/l804.exe)
 Closed-shell transformation, MDV=   754974720 ITran=4 ISComp=2.
 Unit  1 TFree=        277513 TCopy=        242092.
 Semi-Direct transformation.
 ModeAB=           4 MOrb=             4 LenV=     754589018
 LASXX=       368428 LTotXX=      368428 LenRXX=      751146
 LTotAB=      382718 MaxLAS=     1379560 LenRXY=           0
 NonZer=     1119574 LenScr=     2357760 LnRSAI=     1379560
 LnScr1=     2758656 LExtra=           0 Total=      7247122
 MaxDsk=          -1 SrtSym=           T ITran=            4
 DoSDTr:  NPSUse=  4
 JobTyp=0 Pass  1:  I=   1 to   4.
 (rs|ai) integrals will be sorted in core.
 Complete sort for first half transformation.
 First half transformation complete.
 Complete sort for second half transformation.
 Second half transformation complete.
 Spin components of T(2) and E(2):
     alpha-alpha T2 =       0.7708014035D-02 E2=     -0.3209654148D-01
     alpha-beta  T2 =       0.4451021087D-01 E2=     -0.2000792665D+00
     beta-beta   T2 =       0.7708014035D-02 E2=     -0.3209654148D-01
 ANorm=    0.1029527192D+01
 E2 =    -0.2642723495D+00 EUMP2 =    -0.76322841223521D+02
 Leave Link  804 at Wed Feb  8 13:48:24 2023, MaxMem=   754974720 cpu:               1.6 elap:               0.4
 (Enter /opt/cluster/programs/g16-c.01/g16/l913.exe)
 CIDS:  MDV=   754974720.
 Frozen-core window:  NFC=   1 NFV=   0.
 IFCWin=0 IBDFC=1 NFBD=     0     0 NFCmp=     0     0 NFFFC=     0     0
 Using DD3R+UMP44R for 1st iteration.
 Using DD4RQ for 2nd and later iterations.
 Keep R2 and R3 ints in memory in symmetry-blocked form, NReq=11500115.
 FoFCou: FMM=F IPFlag=           0 FMFlag=           0 FMFlg1=           0
         NFxFlg=           0 DoJE=F BraDBF=F KetDBF=F FulRan=T
         wScrn=  0.000000 ICntrl=       600 IOpCl=  0 I1Cent=           0 NGrid=           0
         NMat0=    1 NMatS0=   4278 NMatT0=    0 NMatD0=    1 NMtDS0=    0 NMtDT0=    0
 Petite list used in FoFCou.
 CIDS: In Core Option IDoMem=           1.
 CCSD(T)
 =======
 Iterations=  50 Convergence= 0.100D-06
 Produce multiple copies of IABC intergrals
 Iteration Nr.   1
 **********************
 DD1Dir will call FoFMem   1 times, MxPair=        20
 NAB=    10 NAA=     0 NBB=     0.
 MP4(R+Q)=  0.38540245D-02
 Maximum subspace dimension=  5
 A-vector RMS=  2.6316174D-03 Max=  1.0907126D-02 conv= 1.00D-05.
 RLE energy=       -0.2639982082
 E3=       -0.36169313D-02        EUMP3=      -0.76326458155D+02
 E4(DQ)=   -0.34023067D-03        UMP4(DQ)=   -0.76326798386D+02
 E4(SDQ)=  -0.19798355D-02        UMP4(SDQ)=  -0.76328437990D+02
 VARIATIONAL ENERGIES WITH THE FIRST-ORDER WAVEFUNCTION:
 DE(Corr)= -0.26399793     E(Corr)=     -76.322566803    
 NORM(A)=   0.10295282D+01
 Iteration Nr.   2
 **********************
 DD1Dir will call FoFMem   1 times, MxPair=        20
 NAB=    10 NAA=     0 NBB=     0.
 A-vector RMS=  2.6817921D-04 Max=  1.9524287D-03 conv= 1.00D-05.
 RLE energy=       -0.2691572421
 DE(Corr)= -0.26880663     E(CORR)=     -76.327375506     Delta=-4.81D-03
 NORM(A)=   0.10313262D+01
 Iteration Nr.   3
 **********************
 DD1Dir will call FoFMem   1 times, MxPair=        20
 NAB=    10 NAA=     0 NBB=     0.
 A-vector RMS=  3.5382341D-04 Max=  1.9656646D-03 conv= 1.00D-05.
 RLE energy=       -0.2694111089
 DE(Corr)= -0.26910439     E(CORR)=     -76.327673268     Delta=-2.98D-04
 NORM(A)=   0.10316486D+01
 Iteration Nr.   4
 **********************
 DD1Dir will call FoFMem   1 times, MxPair=        20
 NAB=    10 NAA=     0 NBB=     0.
 A-vector RMS=  5.0237548D-05 Max=  3.2822717D-04 conv= 1.00D-05.
 RLE energy=       -0.2694366458
 DE(Corr)= -0.26941472     E(CORR)=     -76.327983589     Delta=-3.10D-04
 NORM(A)=   0.10317374D+01
 Iteration Nr.   5
 **********************
 DD1Dir will call FoFMem   1 times, MxPair=        20
 NAB=    10 NAA=     0 NBB=     0.
 A-vector RMS=  2.5767650D-05 Max=  1.7017324D-04 conv= 1.00D-05.
 RLE energy=       -0.2694456466
 DE(Corr)= -0.26944169     E(CORR)=     -76.328010563     Delta=-2.70D-05
 NORM(A)=   0.10317549D+01
 Iteration Nr.   6
 **********************
 DD1Dir will call FoFMem   1 times, MxPair=        20
 NAB=    10 NAA=     0 NBB=     0.
 A-vector RMS=  5.9076883D-06 Max=  3.6681184D-05 conv= 1.00D-05.
 RLE energy=       -0.2694428915
 DE(Corr)= -0.26944356     E(CORR)=     -76.328012436     Delta=-1.87D-06
 NORM(A)=   0.10317565D+01
 Iteration Nr.   7
 **********************
 DD1Dir will call FoFMem   1 times, MxPair=        20
 NAB=    10 NAA=     0 NBB=     0.
 A-vector RMS=  1.9001471D-06 Max=  1.0612156D-05 conv= 1.00D-05.
 RLE energy=       -0.2694428059
 DE(Corr)= -0.26944351     E(CORR)=     -76.328012388     Delta= 4.74D-08
 NORM(A)=   0.10317570D+01
 Iteration Nr.   8
 **********************
 DD1Dir will call FoFMem   1 times, MxPair=        20
 NAB=    10 NAA=     0 NBB=     0.
 A-vector RMS=  7.1688856D-07 Max=  4.7917664D-06 conv= 1.00D-05.
 RLE energy=       -0.2694432690
 DE(Corr)= -0.26944334     E(CORR)=     -76.328012213     Delta= 1.75D-07
 NORM(A)=   0.10317573D+01
 Iteration Nr.   9
 **********************
 DD1Dir will call FoFMem   1 times, MxPair=        20
 NAB=    10 NAA=     0 NBB=     0.
 A-vector RMS=  1.5203276D-07 Max=  8.0999634D-07 conv= 1.00D-05.
 RLE energy=       -0.2694433375
 DE(Corr)= -0.26944335     E(CORR)=     -76.328012221     Delta=-8.08D-09
 NORM(A)=   0.10317574D+01
 CI/CC converged in    9 iterations to DelEn=-8.08D-09 Conv= 1.00D-07 ErrA1= 1.52D-07 Conv= 1.00D-05
 Wavefunction amplitudes converged. E(Corr)=     -76.328012221    
 Largest amplitude= 2.02D-02
 IPart=  1 IA=    6   11.23% done.
 IPart=  2 IA=   11   21.79% done.
 IPart=  2 IA=   16   31.68% done.
 IPart=  1 IA=   21   40.90% done.
 IPart=  4 IA=   27   51.08% done.
 IPart=  1 IA=   33   60.30% done.
 IPart=  3 IA=   41   71.10% done.
 IPart=  3 IA=   49   80.19% done.
 IPart=  3 IA=   61   90.62% done.
 Time for triples=        5.89 seconds.
 T4(CCSD)= -0.84085348D-02
 T5(CCSD)=  0.27923999D-03
 CCSD(T)= -0.76336141516D+02
 Discarding MO integrals.
 Leave Link  913 at Wed Feb  8 13:48:27 2023, MaxMem=   754974720 cpu:               9.7 elap:               2.4
 (Enter /opt/cluster/programs/g16-c.01/g16/l601.exe)
 Copying SCF densities to generalized density rwf, IOpCl= 0 IROHF=0.

 **********************************************************************

            Population analysis using the SCF Density.

 **********************************************************************

 Orbital symmetries:
       Occupied  (A1) (A1) (B2) (A1) (B1)
       Virtual   (A1) (B2) (A1) (B1) (A1) (B2) (B2) (A1) (A2) (B1)
                 (A1) (B2) (A1) (B2) (B2) (A1) (A1) (A2) (B1) (A1)
                 (B1) (A1) (B1) (B2) (A2) (B2) (A1) (A1) (B2) (B1)
                 (B2) (A2) (A1) (B2) (A2) (A1) (B1) (A1) (B2) (B2)
                 (A1) (B1) (A1) (A2) (B1) (A1) (B2) (A1) (B2) (B1)
                 (A1) (B2) (A2) (B2) (A1) (A2) (B1) (A1) (B2) (B1)
                 (A2) (A1) (B1) (B2) (A1) (B2) (B2) (A2) (B2) (A1)
                 (B1) (A1) (A1) (B2) (B1) (A1) (B1) (A1) (A2) (B1)
                 (A2) (B2) (A1) (B2) (A1) (B2) (A1)
 The electronic state is 1-A1.
 Alpha  occ. eigenvalues --  -20.55585  -1.37550  -0.75752  -0.58236  -0.51310
 Alpha virt. eigenvalues --    0.03036   0.04751   0.13668   0.15485   0.17529
 Alpha virt. eigenvalues --    0.18126   0.23337   0.24653   0.26378   0.30950
 Alpha virt. eigenvalues --    0.31666   0.36638   0.44870   0.47352   0.60780
 Alpha virt. eigenvalues --    0.65753   0.71351   0.71808   0.72903   0.84221
 Alpha virt. eigenvalues --    0.84887   0.88211   0.92086   0.92147   0.92556
 Alpha virt. eigenvalues --    0.93006   0.97994   1.04705   1.06525   1.09139
 Alpha virt. eigenvalues --    1.12792   1.18292   1.19245   1.24533   1.52955
 Alpha virt. eigenvalues --    1.56069   1.63315   1.77643   1.80737   2.07587
 Alpha virt. eigenvalues --    2.15431   2.26329   2.31419   2.33360   2.41807
 Alpha virt. eigenvalues --    2.42571   2.42835   2.47793   2.66484   2.68843
 Alpha virt. eigenvalues --    2.82798   2.88683   2.90893   3.72256   3.84293
 Alpha virt. eigenvalues --    4.04423   4.15018   4.27485   4.29129   4.37747
 Alpha virt. eigenvalues --    4.40461   4.41676   4.46729   4.50610   4.75880
 Alpha virt. eigenvalues --    4.88848   5.25351   5.30898   5.44788   5.53879
 Alpha virt. eigenvalues --    5.64877   5.81768   6.22771   6.52727   6.72425
 Alpha virt. eigenvalues --    6.92851   7.13954   7.28166   7.31461   7.37234
 Alpha virt. eigenvalues --    7.47999   7.56764   7.74250   8.07642   8.12205
 Alpha virt. eigenvalues --    9.00168  17.50904
          Condensed to atoms (all electrons):
               1          2          3
     1  O    7.758940   0.294383   0.294383
     2  H    0.294383   0.543437  -0.011674
     3  H    0.294383  -0.011674   0.543437
 Mulliken charges:
               1
     1  O   -0.347707
     2  H    0.173853
     3  H    0.173853
 Sum of Mulliken charges =   0.00000
 Mulliken charges with hydrogens summed into heavy atoms:
               1
     1  O    0.000000
 Electronic spatial extent (au):  <R**2>=             18.8610
 Charge=              0.0000 electrons
 Dipole moment (field-independent basis, Debye):
    X=             -0.0000    Y=             -0.0000    Z=             -1.8439  Tot=              1.8439
 Quadrupole moment (field-independent basis, Debye-Ang):
   XX=             -7.4531   YY=             -4.1169   ZZ=             -6.3775
   XY=              0.0000   XZ=              0.0000   YZ=              0.0000
 Traceless Quadrupole moment (field-independent basis, Debye-Ang):
   XX=             -1.4706   YY=              1.8656   ZZ=             -0.3950
   XY=              0.0000   XZ=              0.0000   YZ=              0.0000
 Octapole moment (field-independent basis, Debye-Ang**2):
  XXX=              0.0000  YYY=             -0.0000  ZZZ=             -1.0738  XYY=             -0.0000
  XXY=             -0.0000  XXZ=             -0.2693  XZZ=              0.0000  YZZ=             -0.0000
  YYZ=             -1.2664  XYZ=             -0.0000
 Hexadecapole moment (field-independent basis, Debye-Ang**3):
 XXXX=             -6.5954 YYYY=             -5.4710 ZZZZ=             -6.8705 XXXY=             -0.0000
 XXXZ=             -0.0000 YYYX=             -0.0000 YYYZ=             -0.0000 ZZZX=             -0.0000
 ZZZY=             -0.0000 XXYY=             -2.3343 XXZZ=             -2.2748 YYZZ=             -1.8513
 XXYZ=             -0.0000 YYXZ=              0.0000 ZZXY=             -0.0000
 N-N= 9.668817570072D+00 E-N=-2.000440490398D+02  KE= 7.615793384821D+01
 Symmetry A1   KE= 6.800714149417D+01
 Symmetry A2   KE=-1.699566415797D-19
 Symmetry B1   KE= 4.456394630723D+00
 Symmetry B2   KE= 3.694397723318D+00
 Leave Link  601 at Wed Feb  8 13:48:27 2023, MaxMem=   754974720 cpu:               0.9 elap:               0.3
 (Enter /opt/cluster/programs/g16-c.01/g16/l9999.exe)
 Unable to Open any file for archive entry.
 1\1\GINC-NODE58\SP\RCCSD(T)-FC\Aug-CC-pVTZ\H2O1\BOITTIER\08-Feb-2023\0
 \\#P CCSD(T)/aug-cc-pVTZ scf(maxcycle=200)\\Gaussian input\\0,1\O,0,0.
 ,0.11751,0.\H,0,0.7183372325,-0.4395112028,0.\H,0,-0.77289604,-0.36093
 82326,0.\\Version=ES64L-G16RevC.01\State=1-A1\HF=-76.0585689\MP2=-76.3
 228412\MP3=-76.3264582\MP4D=-76.3306524\MP4DQ=-76.3267984\MP4SDQ=-76.3
 28438\CCSD=-76.3280122\CCSD(T)=-76.3361415\RMSD=2.187e-09\PG=C02V [C2(
 O1),SGV(H2)]\\@
 The archive entry for this job was punched.


 A FOOL CAN ASK MORE QUESTIONS THAN
 A WISE MAN CAN ANSWER.
 Job cpu time:       0 days  0 hours  0 minutes 17.1 seconds.
 Elapsed time:       0 days  0 hours  0 minutes  4.5 seconds.
 File lengths (MBytes):  RWF=     64 Int=      0 D2E=      0 Chk=      2 Scr=      1
 Normal termination of Gaussian 16 at Wed Feb  8 13:48:27 2023.
