 Entering Gaussian System, Link 0=/opt/cluster/programs/g16-c.01/g16/g16
 Input=/scratch/boittier/jobs/tmp.7261773/gaussian_102_water_ccsdt_atz.com
 Output=/scratch/boittier/jobs/tmp.7261773/gaussian_102_water_ccsdt_atz.out
 Initial command:
 /opt/cluster/programs/g16-c.01/g16/l1.exe "/scratch/boittier/jobs/tmp.7261773/Gau-98207.inp" -scrdir="/scratch/boittier/jobs/tmp.7261773/"
 Entering Link 1 = /opt/cluster/programs/g16-c.01/g16/l1.exe PID=     98208.
  
 Copyright (c) 1988-2019, Gaussian, Inc.  All Rights Reserved.
  
 This is part of the Gaussian(R) 16 program.  It is based on
 the Gaussian(R) 09 system (copyright 2009, Gaussian, Inc.),
 the Gaussian(R) 03 system (copyright 2003, Gaussian, Inc.),
 the Gaussian(R) 98 system (copyright 1998, Gaussian, Inc.),
 the Gaussian(R) 94 system (copyright 1995, Gaussian, Inc.),
 the Gaussian 92(TM) system (copyright 1992, Gaussian, Inc.),
 the Gaussian 90(TM) system (copyright 1990, Gaussian, Inc.),
 the Gaussian 88(TM) system (copyright 1988, Gaussian, Inc.),
 the Gaussian 86(TM) system (copyright 1986, Carnegie Mellon
 University), and the Gaussian 82(TM) system (copyright 1983,
 Carnegie Mellon University). Gaussian is a federally registered
 trademark of Gaussian, Inc.
  
 This software contains proprietary and confidential information,
 including trade secrets, belonging to Gaussian, Inc.
  
 This software is provided under written license and may be
 used, copied, transmitted, or stored only in accord with that
 written license.
  
 The following legend is applicable only to US Government
 contracts under FAR:
  
                    RESTRICTED RIGHTS LEGEND
  
 Use, reproduction and disclosure by the US Government is
 subject to restrictions as set forth in subparagraphs (a)
 and (c) of the Commercial Computer Software - Restricted
 Rights clause in FAR 52.227-19.
  
 Gaussian, Inc.
 340 Quinnipiac St., Bldg. 40, Wallingford CT 06492
  
  
 ---------------------------------------------------------------
 Warning -- This program may not be used in any manner that
 competes with the business of Gaussian, Inc. or will provide
 assistance to any competitor of Gaussian, Inc.  The licensee
 of this program is prohibited from giving any competitor of
 Gaussian, Inc. access to this program.  By using this program,
 the user acknowledges that Gaussian, Inc. is engaged in the
 business of creating and licensing software in the field of
 computational chemistry and represents and warrants to the
 licensee that it is not a competitor of Gaussian, Inc. and that
 it will not use this program in any manner prohibited above.
 ---------------------------------------------------------------
  

 Cite this work as:
 Gaussian 16, Revision C.01,
 M. J. Frisch, G. W. Trucks, H. B. Schlegel, G. E. Scuseria, 
 M. A. Robb, J. R. Cheeseman, G. Scalmani, V. Barone, 
 G. A. Petersson, H. Nakatsuji, X. Li, M. Caricato, A. V. Marenich, 
 J. Bloino, B. G. Janesko, R. Gomperts, B. Mennucci, H. P. Hratchian, 
 J. V. Ortiz, A. F. Izmaylov, J. L. Sonnenberg, D. Williams-Young, 
 F. Ding, F. Lipparini, F. Egidi, J. Goings, B. Peng, A. Petrone, 
 T. Henderson, D. Ranasinghe, V. G. Zakrzewski, J. Gao, N. Rega, 
 G. Zheng, W. Liang, M. Hada, M. Ehara, K. Toyota, R. Fukuda, 
 J. Hasegawa, M. Ishida, T. Nakajima, Y. Honda, O. Kitao, H. Nakai, 
 T. Vreven, K. Throssell, J. A. Montgomery, Jr., J. E. Peralta, 
 F. Ogliaro, M. J. Bearpark, J. J. Heyd, E. N. Brothers, K. N. Kudin, 
 V. N. Staroverov, T. A. Keith, R. Kobayashi, J. Normand, 
 K. Raghavachari, A. P. Rendell, J. C. Burant, S. S. Iyengar, 
 J. Tomasi, M. Cossi, J. M. Millam, M. Klene, C. Adamo, R. Cammi, 
 J. W. Ochterski, R. L. Martin, K. Morokuma, O. Farkas, 
 J. B. Foresman, and D. J. Fox, Gaussian, Inc., Wallingford CT, 2019.
 
 ******************************************
 Gaussian 16:  ES64L-G16RevC.01  3-Jul-2019
                 8-Feb-2023 
 ******************************************
 %nproc=4
 Will use up to    4 processors via shared memory.
 %mem=5760MB
 %chk=gaussian_102_water_ccsdt_atz.chk
 ----------------------------------------
 #P CCSD(T)/aug-cc-pVTZ scf(maxcycle=200)
 ----------------------------------------
 1/38=1,172=1/1;
 2/12=2,17=6,18=5,40=1/2;
 3/5=16,6=1,7=10,11=9,25=1,30=1/1,2,3;
 4//1;
 5/5=2,7=200,38=5/2;
 8/6=4,9=120000,10=1/1,4;
 9/5=7,14=2/13;
 6/7=2,8=2,9=2,10=2/1;
 99/5=1,9=1/99;
 Leave Link    1 at Wed Feb  8 13:53:35 2023, MaxMem=   754974720 cpu:               0.1 elap:               0.0
 (Enter /opt/cluster/programs/g16-c.01/g16/l101.exe)
 --------------
 Gaussian input
 --------------
 Symbolic Z-matrix:
 Charge =  0 Multiplicity = 1
 O                     0.        0.11751   0. 
 H                     0.75785  -0.47015   0. 
 H                    -0.59651  -0.69629   0. 
 
 ITRead=  0  0  0
 MicOpt= -1 -1 -1
 NAtoms=      3 NQM=        3 NQMF=       0 NMMI=      0 NMMIF=      0
                NMic=       0 NMicF=      0.
                    Isotopes and Nuclear Properties:
 (Nuclear quadrupole moments (NQMom) in fm**2, nuclear magnetic moments (NMagM)
  in nuclear magnetons)

  Atom         1           2           3
 IAtWgt=          16           1           1
 AtmWgt=  15.9949146   1.0078250   1.0078250
 NucSpn=           0           1           1
 AtZEff=  -0.0000000  -0.0000000  -0.0000000
 NQMom=    0.0000000   0.0000000   0.0000000
 NMagM=    0.0000000   2.7928460   2.7928460
 AtZNuc=   8.0000000   1.0000000   1.0000000
 Leave Link  101 at Wed Feb  8 13:53:36 2023, MaxMem=   754974720 cpu:               0.5 elap:               0.2
 (Enter /opt/cluster/programs/g16-c.01/g16/l202.exe)
                          Input orientation:                          
 ---------------------------------------------------------------------
 Center     Atomic      Atomic             Coordinates (Angstroms)
 Number     Number       Type             X           Y           Z
 ---------------------------------------------------------------------
      1          8           0        0.000000    0.117510    0.000000
      2          1           0        0.757850   -0.470150    0.000000
      3          1           0       -0.596505   -0.696285    0.000000
 ---------------------------------------------------------------------
                    Distance matrix (angstroms):
                    1          2          3
     1  O    0.000000
     2  H    0.959000   0.000000
     3  H    1.009000   1.373104   0.000000
 Stoichiometry    H2O
 Framework group  CS[SG(H2O)]
 Deg. of freedom     3
 Full point group                 CS      NOp   2
 Largest Abelian subgroup         CS      NOp   2
 Largest concise Abelian subgroup C1      NOp   1
                         Standard orientation:                         
 ---------------------------------------------------------------------
 Center     Atomic      Atomic             Coordinates (Angstroms)
 Number     Number       Type             X           Y           Z
 ---------------------------------------------------------------------
      1          8           0        0.000000    0.141071    0.000000
      2          1           0        0.685666   -0.529409    0.000000
      3          1           0       -0.685666   -0.599161    0.000000
 ---------------------------------------------------------------------
 Rotational constants (GHZ):         584.2816013         517.9473711         274.5592131
 Leave Link  202 at Wed Feb  8 13:53:36 2023, MaxMem=   754974720 cpu:               0.1 elap:               0.0
 (Enter /opt/cluster/programs/g16-c.01/g16/l301.exe)
 Standard basis: Aug-CC-pVTZ (5D, 7F)
 Ernie: Thresh=  0.10000D-02 Tol=  0.10000D-05 Strict=F.
 Ernie:  3 primitive shells out of 52 were deleted.
 There are    73 symmetry adapted cartesian basis functions of A'  symmetry.
 There are    32 symmetry adapted cartesian basis functions of A"  symmetry.
 There are    62 symmetry adapted basis functions of A'  symmetry.
 There are    30 symmetry adapted basis functions of A"  symmetry.
    92 basis functions,   126 primitive gaussians,   105 cartesian basis functions
     5 alpha electrons        5 beta electrons
       nuclear repulsion energy         8.9954527860 Hartrees.
 IExCor=    0 DFT=F Ex=HF Corr=None ExCW=0 ScaHFX=  1.000000
 ScaDFX=  1.000000  1.000000  1.000000  1.000000 ScalE2=  1.000000  1.000000
 IRadAn=      5 IRanWt=     -1 IRanGd=            0 ICorTp=0 IEmpDi=  4
 NAtoms=    3 NActive=    3 NUniq=    3 SFac= 1.00D+00 NAtFMM=   60 NAOKFM=F Big=F
 Integral buffers will be    131072 words long.
 Raffenetti 1 integral format.
 Two-electron integral symmetry is turned on.
 Leave Link  301 at Wed Feb  8 13:53:36 2023, MaxMem=   754974720 cpu:               0.2 elap:               0.1
 (Enter /opt/cluster/programs/g16-c.01/g16/l302.exe)
 NPDir=0 NMtPBC=     1 NCelOv=     1 NCel=       1 NClECP=     1 NCelD=      1
         NCelK=      1 NCelE2=     1 NClLst=     1 CellRange=     0.0.
 One-electron integrals computed using PRISM.
 One-electron integral symmetry used in STVInt
 NBasis=    92 RedAO= T EigKep=  3.95D-04  NBF=    62    30
 NBsUse=    92 1.00D-06 EigRej= -1.00D+00 NBFU=    62    30
 Leave Link  302 at Wed Feb  8 13:53:36 2023, MaxMem=   754974720 cpu:               0.6 elap:               0.2
 (Enter /opt/cluster/programs/g16-c.01/g16/l303.exe)
 DipDrv:  MaxL=1.
 Leave Link  303 at Wed Feb  8 13:53:36 2023, MaxMem=   754974720 cpu:               0.6 elap:               0.3
 (Enter /opt/cluster/programs/g16-c.01/g16/l401.exe)
 ExpMin= 2.53D-02 ExpMax= 1.53D+04 ExpMxC= 5.22D+02 IAcc=3 IRadAn=         5 AccDes= 0.00D+00
 Harris functional with IExCor=  205 and IRadAn=       5 diagonalized for initial guess.
 HarFok:  IExCor=  205 AccDes= 0.00D+00 IRadAn=         5 IDoV= 1 UseB2=F ITyADJ=14
 ICtDFT=  3500011 ScaDFX=  1.000000  1.000000  1.000000  1.000000
 FoFCou: FMM=F IPFlag=           0 FMFlag=      100000 FMFlg1=           0
         NFxFlg=           0 DoJE=T BraDBF=F KetDBF=T FulRan=T
         wScrn=  0.000000 ICntrl=       500 IOpCl=  0 I1Cent=   200000004 NGrid=           0
         NMat0=    1 NMatS0=      1 NMatT0=    0 NMatD0=    1 NMtDS0=    0 NMtDT0=    0
 Petite list used in FoFCou.
 Harris En= -76.1426601588887    
 JPrj=0 DoOrth=F DoCkMO=F.
 Initial guess orbital symmetries:
       Occupied  (A') (A') (A') (A') (A")
       Virtual   (A') (A') (A') (A") (A') (A') (A') (A') (A") (A")
                 (A') (A') (A') (A') (A') (A') (A') (A") (A") (A")
                 (A') (A') (A') (A") (A') (A") (A') (A') (A') (A")
                 (A') (A") (A') (A') (A') (A") (A") (A') (A') (A')
                 (A') (A") (A") (A') (A') (A") (A') (A') (A') (A")
                 (A') (A') (A") (A') (A') (A") (A') (A") (A") (A')
                 (A") (A') (A") (A') (A') (A') (A") (A') (A') (A")
                 (A') (A') (A') (A') (A") (A') (A') (A") (A") (A")
                 (A") (A') (A') (A') (A') (A') (A')
 The electronic state of the initial guess is 1-A'.
 Leave Link  401 at Wed Feb  8 13:53:38 2023, MaxMem=   754974720 cpu:               3.5 elap:               1.8
 (Enter /opt/cluster/programs/g16-c.01/g16/l502.exe)
 Keep R1 ints in memory in symmetry-blocked form, NReq=13818732.
 FoFCou: FMM=F IPFlag=           0 FMFlag=           0 FMFlg1=           0
         NFxFlg=           0 DoJE=F BraDBF=F KetDBF=F FulRan=T
         wScrn=  0.000000 ICntrl=       600 IOpCl=  0 I1Cent=           0 NGrid=           0
         NMat0=    1 NMatS0=   4278 NMatT0=    0 NMatD0=    1 NMtDS0=    0 NMtDT0=    0
 Petite list used in FoFCou.
 Closed shell SCF:
 Using DIIS extrapolation, IDIIS=  1040.
 NGot=   754974720 LenX=   750285684 LenY=   750274218
 Requested convergence on RMS density matrix=1.00D-08 within 200 cycles.
 Requested convergence on MAX density matrix=1.00D-06.
 Requested convergence on             energy=1.00D-06.
 No special actions if energy rises.

 Cycle   1  Pass 1  IDiag  1:
 E= -75.9621558080809    
 DIIS: error= 5.12D-02 at cycle   1 NSaved=   1.
 NSaved= 1 IEnMin= 1 EnMin= -75.9621558080809     IErMin= 1 ErrMin= 5.12D-02
 ErrMax= 5.12D-02  0.00D+00 EMaxC= 1.00D-01 BMatC= 1.97D-01 BMatP= 1.97D-01
 IDIUse=3 WtCom= 4.88D-01 WtEn= 5.12D-01
 Coeff-Com:  0.100D+01
 Coeff-En:   0.100D+01
 Coeff:      0.100D+01
 Gap=     0.457 Goal=   None    Shift=    0.000
 GapD=    0.457 DampG=2.000 DampE=0.500 DampFc=1.0000 IDamp=-1.
 RMSDP=2.15D-03 MaxDP=4.71D-02              OVMax= 1.29D-01

 Cycle   2  Pass 1  IDiag  1:
 E= -76.0103583854239     Delta-E=       -0.048202577343 Rises=F Damp=F
 DIIS: error= 3.55D-02 at cycle   2 NSaved=   2.
 NSaved= 2 IEnMin= 2 EnMin= -76.0103583854239     IErMin= 2 ErrMin= 3.55D-02
 ErrMax= 3.55D-02  0.00D+00 EMaxC= 1.00D-01 BMatC= 6.11D-02 BMatP= 1.97D-01
 IDIUse=3 WtCom= 6.45D-01 WtEn= 3.55D-01
 Coeff-Com:  0.330D+00 0.670D+00
 Coeff-En:   0.231D+00 0.769D+00
 Coeff:      0.295D+00 0.705D+00
 Gap=     0.565 Goal=   None    Shift=    0.000
 RMSDP=1.34D-03 MaxDP=3.65D-02 DE=-4.82D-02 OVMax= 6.59D-02

 Cycle   3  Pass 1  IDiag  1:
 E= -76.0472867747706     Delta-E=       -0.036928389347 Rises=F Damp=F
 DIIS: error= 6.75D-03 at cycle   3 NSaved=   3.
 NSaved= 3 IEnMin= 3 EnMin= -76.0472867747706     IErMin= 3 ErrMin= 6.75D-03
 ErrMax= 6.75D-03  0.00D+00 EMaxC= 1.00D-01 BMatC= 2.64D-03 BMatP= 6.11D-02
 IDIUse=3 WtCom= 9.33D-01 WtEn= 6.75D-02
 Coeff-Com: -0.318D-01 0.140D+00 0.892D+00
 Coeff-En:   0.000D+00 0.000D+00 0.100D+01
 Coeff:     -0.297D-01 0.130D+00 0.899D+00
 Gap=     0.538 Goal=   None    Shift=    0.000
 RMSDP=2.14D-04 MaxDP=4.03D-03 DE=-3.69D-02 OVMax= 1.29D-02

 Cycle   4  Pass 1  IDiag  1:
 E= -76.0489915160880     Delta-E=       -0.001704741317 Rises=F Damp=F
 DIIS: error= 6.18D-04 at cycle   4 NSaved=   4.
 NSaved= 4 IEnMin= 4 EnMin= -76.0489915160880     IErMin= 4 ErrMin= 6.18D-04
 ErrMax= 6.18D-04  0.00D+00 EMaxC= 1.00D-01 BMatC= 1.41D-05 BMatP= 2.64D-03
 IDIUse=3 WtCom= 9.94D-01 WtEn= 6.18D-03
 Coeff-Com:  0.797D-02-0.558D-01-0.276D+00 0.132D+01
 Coeff-En:   0.000D+00 0.000D+00 0.000D+00 0.100D+01
 Coeff:      0.793D-02-0.555D-01-0.275D+00 0.132D+01
 Gap=     0.540 Goal=   None    Shift=    0.000
 RMSDP=4.20D-05 MaxDP=7.35D-04 DE=-1.70D-03 OVMax= 2.45D-03

 Cycle   5  Pass 1  IDiag  1:
 E= -76.0490191137894     Delta-E=       -0.000027597701 Rises=F Damp=F
 DIIS: error= 1.87D-04 at cycle   5 NSaved=   5.
 NSaved= 5 IEnMin= 5 EnMin= -76.0490191137894     IErMin= 5 ErrMin= 1.87D-04
 ErrMax= 1.87D-04  0.00D+00 EMaxC= 1.00D-01 BMatC= 7.65D-07 BMatP= 1.41D-05
 IDIUse=3 WtCom= 9.98D-01 WtEn= 1.87D-03
 Coeff-Com:  0.447D-04 0.308D-02 0.156D-01-0.287D+00 0.127D+01
 Coeff-En:   0.000D+00 0.000D+00 0.000D+00 0.000D+00 0.100D+01
 Coeff:      0.446D-04 0.307D-02 0.155D-01-0.287D+00 0.127D+01
 Gap=     0.541 Goal=   None    Shift=    0.000
 RMSDP=1.14D-05 MaxDP=2.70D-04 DE=-2.76D-05 OVMax= 8.31D-04

 Cycle   6  Pass 1  IDiag  1:
 E= -76.0490209942725     Delta-E=       -0.000001880483 Rises=F Damp=F
 DIIS: error= 2.91D-05 at cycle   6 NSaved=   6.
 NSaved= 6 IEnMin= 6 EnMin= -76.0490209942725     IErMin= 6 ErrMin= 2.91D-05
 ErrMax= 2.91D-05  0.00D+00 EMaxC= 1.00D-01 BMatC= 2.50D-08 BMatP= 7.65D-07
 IDIUse=1 WtCom= 1.00D+00 WtEn= 0.00D+00
 Coeff-Com: -0.280D-03 0.125D-02 0.483D-02 0.235D-01-0.348D+00 0.132D+01
 Coeff:     -0.280D-03 0.125D-02 0.483D-02 0.235D-01-0.348D+00 0.132D+01
 Gap=     0.541 Goal=   None    Shift=    0.000
 RMSDP=2.42D-06 MaxDP=6.20D-05 DE=-1.88D-06 OVMax= 1.74D-04

 Cycle   7  Pass 1  IDiag  1:
 E= -76.0490210656305     Delta-E=       -0.000000071358 Rises=F Damp=F
 DIIS: error= 3.91D-06 at cycle   7 NSaved=   7.
 NSaved= 7 IEnMin= 7 EnMin= -76.0490210656305     IErMin= 7 ErrMin= 3.91D-06
 ErrMax= 3.91D-06  0.00D+00 EMaxC= 1.00D-01 BMatC= 8.60D-10 BMatP= 2.50D-08
 IDIUse=1 WtCom= 1.00D+00 WtEn= 0.00D+00
 Coeff-Com:  0.290D-04-0.305D-03-0.156D-02 0.149D-01-0.333D-01-0.963D-01
 Coeff-Com:  0.112D+01
 Coeff:      0.290D-04-0.305D-03-0.156D-02 0.149D-01-0.333D-01-0.963D-01
 Coeff:      0.112D+01
 Gap=     0.541 Goal=   None    Shift=    0.000
 RMSDP=3.49D-07 MaxDP=5.91D-06 DE=-7.14D-08 OVMax= 2.19D-05

 Cycle   8  Pass 1  IDiag  1:
 E= -76.0490210672142     Delta-E=       -0.000000001584 Rises=F Damp=F
 DIIS: error= 8.45D-07 at cycle   8 NSaved=   8.
 NSaved= 8 IEnMin= 8 EnMin= -76.0490210672142     IErMin= 8 ErrMin= 8.45D-07
 ErrMax= 8.45D-07  0.00D+00 EMaxC= 1.00D-01 BMatC= 3.63D-11 BMatP= 8.60D-10
 IDIUse=1 WtCom= 1.00D+00 WtEn= 0.00D+00
 Coeff-Com:  0.574D-05 0.864D-05 0.150D-03-0.410D-02 0.202D-01-0.299D-01
 Coeff-Com: -0.267D+00 0.128D+01
 Coeff:      0.574D-05 0.864D-05 0.150D-03-0.410D-02 0.202D-01-0.299D-01
 Coeff:     -0.267D+00 0.128D+01
 Gap=     0.541 Goal=   None    Shift=    0.000
 RMSDP=9.98D-08 MaxDP=2.52D-06 DE=-1.58D-09 OVMax= 5.63D-06

 Cycle   9  Pass 1  IDiag  1:
 E= -76.0490210673049     Delta-E=       -0.000000000091 Rises=F Damp=F
 DIIS: error= 1.53D-07 at cycle   9 NSaved=   9.
 NSaved= 9 IEnMin= 9 EnMin= -76.0490210673049     IErMin= 9 ErrMin= 1.53D-07
 ErrMax= 1.53D-07  0.00D+00 EMaxC= 1.00D-01 BMatC= 9.22D-13 BMatP= 3.63D-11
 IDIUse=1 WtCom= 1.00D+00 WtEn= 0.00D+00
 Coeff-Com: -0.188D-05 0.344D-05-0.161D-04 0.787D-03-0.422D-02 0.801D-02
 Coeff-Com:  0.544D-01-0.365D+00 0.131D+01
 Coeff:     -0.188D-05 0.344D-05-0.161D-04 0.787D-03-0.422D-02 0.801D-02
 Coeff:      0.544D-01-0.365D+00 0.131D+01
 Gap=     0.541 Goal=   None    Shift=    0.000
 RMSDP=1.71D-08 MaxDP=3.65D-07 DE=-9.07D-11 OVMax= 8.47D-07

 Cycle  10  Pass 1  IDiag  1:
 E= -76.0490210673072     Delta-E=       -0.000000000002 Rises=F Damp=F
 DIIS: error= 3.53D-08 at cycle  10 NSaved=  10.
 NSaved=10 IEnMin=10 EnMin= -76.0490210673072     IErMin=10 ErrMin= 3.53D-08
 ErrMax= 3.53D-08  0.00D+00 EMaxC= 1.00D-01 BMatC= 4.27D-14 BMatP= 9.22D-13
 IDIUse=1 WtCom= 1.00D+00 WtEn= 0.00D+00
 Coeff-Com:  0.425D-06-0.142D-05 0.615D-07-0.122D-03 0.705D-03-0.167D-02
 Coeff-Com: -0.750D-02 0.712D-01-0.440D+00 0.138D+01
 Coeff:      0.425D-06-0.142D-05 0.615D-07-0.122D-03 0.705D-03-0.167D-02
 Coeff:     -0.750D-02 0.712D-01-0.440D+00 0.138D+01
 Gap=     0.541 Goal=   None    Shift=    0.000
 RMSDP=4.26D-09 MaxDP=9.89D-08 DE=-2.30D-12 OVMax= 2.38D-07

 SCF Done:  E(RHF) =  -76.0490210673     A.U. after   10 cycles
            NFock= 10  Conv=0.43D-08     -V/T= 2.0021
 KE= 7.588833278501D+01 PE=-1.985249114687D+02 EE= 3.759210483045D+01
 Leave Link  502 at Wed Feb  8 13:53:42 2023, MaxMem=   754974720 cpu:              11.0 elap:               3.7
 (Enter /opt/cluster/programs/g16-c.01/g16/l801.exe)
 Windowed orbitals will be sorted by symmetry type.
 ExpMin= 2.53D-02 ExpMax= 1.53D+04 ExpMxC= 5.22D+02 IAcc=3 IRadAn=         5 AccDes= 0.00D+00
 HarFok:  IExCor=  205 AccDes= 0.00D+00 IRadAn=         5 IDoV=-2 UseB2=F ITyADJ=14
 ICtDFT= 12500011 ScaDFX=  1.000000  1.000000  1.000000  1.000000
 Largest valence mixing into a core orbital is  1.13D-04
 Largest core mixing into a valence orbital is  1.75D-05
 Range of M.O.s used for correlation:     2    92
 NBasis=    92 NAE=     5 NBE=     5 NFC=     1 NFV=     0
 NROrb=     91 NOA=     4 NOB=     4 NVA=    87 NVB=    87

 **** Warning!!: The largest alpha MO coefficient is  0.14258201D+02

 Leave Link  801 at Wed Feb  8 13:53:42 2023, MaxMem=   754974720 cpu:               0.8 elap:               0.4
 (Enter /opt/cluster/programs/g16-c.01/g16/l804.exe)
 Closed-shell transformation, MDV=   754974720 ITran=4 ISComp=2.
 Unit  1 TFree=        277501 TCopy=        343607.
 Semi-Direct transformation.
 ModeAB=           2 MOrb=             4 LenV=     754586778
 LASXX=       736380 LTotXX=      736380 LenRXX=      736380
 LTotAB=      763744 MaxLAS=     2025660 LenRXY=     2025660
 NonZer=     2107560 LenScr=     3929600 LnRSAI=           0
 LnScr1=           0 LExtra=           0 Total=      6691640
 MaxDsk=          -1 SrtSym=           F ITran=            4
 DoSDTr:  NPSUse=  4
 JobTyp=0 Pass  1:  I=   1 to   4.
 (rs|ai) integrals will be sorted in core.
 Complete sort for first half transformation.
 First half transformation complete.
 Complete sort for second half transformation.
 Second half transformation complete.
 Spin components of T(2) and E(2):
     alpha-alpha T2 =       0.8507360630D-02 E2=     -0.3313567556D-01
     alpha-beta  T2 =       0.4936359360D-01 E2=     -0.2061852153D+00
     beta-beta   T2 =       0.8507360630D-02 E2=     -0.3313567556D-01
 ANorm=    0.1032655952D+01
 E2 =    -0.2724565664D+00 EUMP2 =    -0.76321477633680D+02
 Leave Link  804 at Wed Feb  8 13:53:43 2023, MaxMem=   754974720 cpu:               2.9 elap:               0.8
 (Enter /opt/cluster/programs/g16-c.01/g16/l913.exe)
 CIDS:  MDV=   754974720.
 Frozen-core window:  NFC=   1 NFV=   0.
 IFCWin=0 IBDFC=1 NFBD=     0     0 NFCmp=     0     0 NFFFC=     0     0
 Using DD3R+UMP44R for 1st iteration.
 Using DD4RQ for 2nd and later iterations.
 Keep R2 and R3 ints in memory in symmetry-blocked form, NReq=13979827.
 FoFCou: FMM=F IPFlag=           0 FMFlag=           0 FMFlg1=           0
         NFxFlg=           0 DoJE=F BraDBF=F KetDBF=F FulRan=T
         wScrn=  0.000000 ICntrl=       600 IOpCl=  0 I1Cent=           0 NGrid=           0
         NMat0=    1 NMatS0=   4278 NMatT0=    0 NMatD0=    1 NMtDS0=    0 NMtDT0=    0
 Petite list used in FoFCou.
 CIDS: In Core Option IDoMem=           1.
 CCSD(T)
 =======
 Iterations=  50 Convergence= 0.100D-06
 Produce multiple copies of IABC intergrals
 Iteration Nr.   1
 **********************
 DD1Dir will call FoFMem   1 times, MxPair=        20
 NAB=    10 NAA=     0 NBB=     0.
 MP4(R+Q)=  0.42704253D-02
 Maximum subspace dimension=  5
 A-vector RMS=  3.0296726D-03 Max=  1.2899979D-02 conv= 1.00D-05.
 RLE energy=       -0.2698676497
 E3=       -0.17036643D-02        EUMP3=      -0.76323181298D+02
 E4(DQ)=   -0.79770076D-03        UMP4(DQ)=   -0.76323978999D+02
 E4(SDQ)=  -0.29099275D-02        UMP4(SDQ)=  -0.76326091226D+02
 VARIATIONAL ENERGIES WITH THE FIRST-ORDER WAVEFUNCTION:
 DE(Corr)= -0.26984282     E(Corr)=     -76.318863889    
 NORM(A)=   0.10322126D+01
 Iteration Nr.   2
 **********************
 DD1Dir will call FoFMem   1 times, MxPair=        20
 NAB=    10 NAA=     0 NBB=     0.
 A-vector RMS=  3.3114921D-04 Max=  2.3210412D-03 conv= 1.00D-05.
 RLE energy=       -0.2761307248
 DE(Corr)= -0.27573976     E(CORR)=     -76.324760826     Delta=-5.90D-03
 NORM(A)=   0.10345644D+01
 Iteration Nr.   3
 **********************
 DD1Dir will call FoFMem   1 times, MxPair=        20
 NAB=    10 NAA=     0 NBB=     0.
 A-vector RMS=  4.2736496D-04 Max=  2.3716839D-03 conv= 1.00D-05.
 RLE energy=       -0.2764836532
 DE(Corr)= -0.27605648     E(CORR)=     -76.325077549     Delta=-3.17D-04
 NORM(A)=   0.10350534D+01
 Iteration Nr.   4
 **********************
 DD1Dir will call FoFMem   1 times, MxPair=        20
 NAB=    10 NAA=     0 NBB=     0.
 A-vector RMS=  6.9497491D-05 Max=  3.9118829D-04 conv= 1.00D-05.
 RLE energy=       -0.2765233207
 DE(Corr)= -0.27649073     E(CORR)=     -76.325511802     Delta=-4.34D-04
 NORM(A)=   0.10351832D+01
 Iteration Nr.   5
 **********************
 DD1Dir will call FoFMem   1 times, MxPair=        20
 NAB=    10 NAA=     0 NBB=     0.
 A-vector RMS=  3.1623968D-05 Max=  2.0116319D-04 conv= 1.00D-05.
 RLE energy=       -0.2765376805
 DE(Corr)= -0.27653140     E(CORR)=     -76.325552472     Delta=-4.07D-05
 NORM(A)=   0.10352088D+01
 Iteration Nr.   6
 **********************
 DD1Dir will call FoFMem   1 times, MxPair=        20
 NAB=    10 NAA=     0 NBB=     0.
 A-vector RMS=  7.4433273D-06 Max=  4.4859614D-05 conv= 1.00D-05.
 RLE energy=       -0.2765337090
 DE(Corr)= -0.27653463     E(CORR)=     -76.325555702     Delta=-3.23D-06
 NORM(A)=   0.10352107D+01
 Iteration Nr.   7
 **********************
 DD1Dir will call FoFMem   1 times, MxPair=        20
 NAB=    10 NAA=     0 NBB=     0.
 A-vector RMS=  2.3945194D-06 Max=  1.2085893D-05 conv= 1.00D-05.
 RLE energy=       -0.2765337208
 DE(Corr)= -0.27653467     E(CORR)=     -76.325555734     Delta=-3.20D-08
 NORM(A)=   0.10352113D+01
 Iteration Nr.   8
 **********************
 DD1Dir will call FoFMem   1 times, MxPair=        20
 NAB=    10 NAA=     0 NBB=     0.
 A-vector RMS=  9.7710850D-07 Max=  6.2199730D-06 conv= 1.00D-05.
 RLE energy=       -0.2765342750
 DE(Corr)= -0.27653439     E(CORR)=     -76.325555458     Delta= 2.76D-07
 NORM(A)=   0.10352117D+01
 Iteration Nr.   9
 **********************
 DD1Dir will call FoFMem   1 times, MxPair=        20
 NAB=    10 NAA=     0 NBB=     0.
 A-vector RMS=  2.0907477D-07 Max=  1.1133027D-06 conv= 1.00D-05.
 RLE energy=       -0.2765343699
 DE(Corr)= -0.27653439     E(CORR)=     -76.325555457     Delta= 9.11D-10
 NORM(A)=   0.10352118D+01
 CI/CC converged in    9 iterations to DelEn= 9.11D-10 Conv= 1.00D-07 ErrA1= 2.09D-07 Conv= 1.00D-05
 Wavefunction amplitudes converged. E(Corr)=     -76.325555457    
 Largest amplitude= 2.53D-02
 IPart=  4 IA=    6   11.23% done.
 IPart=  1 IA=   11   21.79% done.
 IPart=  4 IA=   16   31.68% done.
 IPart=  3 IA=   21   40.90% done.
 IPart=  1 IA=   27   51.08% done.
 IPart=  4 IA=   33   60.30% done.
 IPart=  4 IA=   41   71.10% done.
 IPart=  3 IA=   49   80.19% done.
 IPart=  1 IA=   61   90.62% done.
 Time for triples=        7.94 seconds.
 T4(CCSD)= -0.94435962D-02
 T5(CCSD)=  0.35809304D-03
 CCSD(T)= -0.76334640960D+02
 Discarding MO integrals.
 Leave Link  913 at Wed Feb  8 13:54:18 2023, MaxMem=   754974720 cpu:              75.9 elap:              35.3
 (Enter /opt/cluster/programs/g16-c.01/g16/l601.exe)
 Copying SCF densities to generalized density rwf, IOpCl= 0 IROHF=0.

 **********************************************************************

            Population analysis using the SCF Density.

 **********************************************************************

 Orbital symmetries:
       Occupied  (A') (A') (A') (A') (A")
       Virtual   (A') (A') (A') (A") (A') (A') (A') (A') (A") (A")
                 (A') (A') (A') (A') (A') (A') (A') (A") (A") (A')
                 (A") (A') (A") (A') (A") (A') (A') (A') (A') (A")
                 (A') (A") (A') (A') (A') (A") (A") (A') (A') (A')
                 (A') (A") (A") (A') (A") (A') (A') (A') (A') (A")
                 (A') (A') (A") (A') (A') (A') (A") (A") (A") (A')
                 (A") (A') (A") (A') (A') (A') (A") (A') (A') (A')
                 (A") (A') (A') (A') (A") (A') (A') (A") (A") (A")
                 (A") (A') (A') (A') (A') (A') (A')
 The electronic state is 1-A'.
 Alpha  occ. eigenvalues --  -20.57820  -1.35276  -0.67138  -0.61097  -0.51288
 Alpha virt. eigenvalues --    0.02783   0.04863   0.13271   0.16208   0.17652
 Alpha virt. eigenvalues --    0.18722   0.21959   0.24612   0.27120   0.28392
 Alpha virt. eigenvalues --    0.30221   0.36829   0.42738   0.46010   0.58935
 Alpha virt. eigenvalues --    0.66890   0.69680   0.72390   0.73653   0.84172
 Alpha virt. eigenvalues --    0.86792   0.90036   0.90099   0.90568   0.92283
 Alpha virt. eigenvalues --    0.93667   0.94653   1.00552   1.03631   1.07325
 Alpha virt. eigenvalues --    1.10469   1.18079   1.19779   1.27685   1.43396
 Alpha virt. eigenvalues --    1.50774   1.53743   1.83051   1.89494   1.94315
 Alpha virt. eigenvalues --    2.14575   2.26615   2.31351   2.32858   2.40615
 Alpha virt. eigenvalues --    2.40749   2.44212   2.51924   2.66370   2.71001
 Alpha virt. eigenvalues --    2.71837   2.85011   2.85978   3.47528   3.66652
 Alpha virt. eigenvalues --    3.99532   4.02463   4.04666   4.13412   4.30039
 Alpha virt. eigenvalues --    4.37373   4.38294   4.40150   4.57889   4.72261
 Alpha virt. eigenvalues --    4.82681   5.04671   5.06542   5.12586   5.46811
 Alpha virt. eigenvalues --    5.49801   5.52139   6.28459   6.44081   6.68059
 Alpha virt. eigenvalues --    6.99500   7.05755   7.08093   7.26104   7.29799
 Alpha virt. eigenvalues --    7.30801   7.43727   7.44458   7.68542   7.94834
 Alpha virt. eigenvalues --    8.75588  15.15212
          Condensed to atoms (all electrons):
               1          2          3
     1  O    7.973837   0.251220   0.254718
     2  H    0.251220   0.486848   0.039384
     3  H    0.254718   0.039384   0.448671
 Mulliken charges:
               1
     1  O   -0.479775
     2  H    0.222548
     3  H    0.257227
 Sum of Mulliken charges =   0.00000
 Mulliken charges with hydrogens summed into heavy atoms:
               1
     1  O    0.000000
 Electronic spatial extent (au):  <R**2>=             19.7928
 Charge=              0.0000 electrons
 Dipole moment (field-independent basis, Debye):
    X=              0.0308    Y=             -2.2540    Z=              0.0000  Tot=              2.2542
 Quadrupole moment (field-independent basis, Debye-Ang):
   XX=             -4.9339   YY=             -5.7394   ZZ=             -7.5972
   XY=              0.0907   XZ=              0.0000   YZ=              0.0000
 Traceless Quadrupole moment (field-independent basis, Debye-Ang):
   XX=              1.1562   YY=              0.3508   ZZ=             -1.5070
   XY=              0.0907   XZ=              0.0000   YZ=              0.0000
 Octapole moment (field-independent basis, Debye-Ang**2):
  XXX=              0.0860  YYY=             -1.4810  ZZZ=              0.0000  XYY=             -0.0854
  XXY=             -1.3519  XXZ=              0.0000  XZZ=              0.0271  YZZ=             -0.2646
  YYZ=              0.0000  XYZ=              0.0000
 Hexadecapole moment (field-independent basis, Debye-Ang**3):
 XXXX=             -6.6105 YYYY=             -7.4678 ZZZZ=             -6.7394 XXXY=             -0.0494
 XXXZ=              0.0000 YYYX=              0.0143 YYYZ=              0.0000 ZZZX=              0.0000
 ZZZY=              0.0000 XXYY=             -1.8072 XXZZ=             -2.4323 YYZZ=             -2.4743
 XXYZ=              0.0000 YYXZ=              0.0000 ZZXY=             -0.0355
 N-N= 8.995452785956D+00 E-N=-1.985249113763D+02  KE= 7.588833278501D+01
 Symmetry A'   KE= 7.140240691627D+01
 Symmetry A"   KE= 4.485925868736D+00
 Leave Link  601 at Wed Feb  8 13:54:18 2023, MaxMem=   754974720 cpu:               0.2 elap:               0.1
 (Enter /opt/cluster/programs/g16-c.01/g16/l9999.exe)
 Unable to Open any file for archive entry.
 1\1\GINC-NODE61\SP\RCCSD(T)-FC\Aug-CC-pVTZ\H2O1\BOITTIER\08-Feb-2023\0
 \\#P CCSD(T)/aug-cc-pVTZ scf(maxcycle=200)\\Gaussian input\\0,1\O,0,0.
 ,0.11751,0.\H,0,0.7578497316,-0.4701504329,0.\H,0,-0.5965053343,-0.696
 2850517,0.\\Version=ES64L-G16RevC.01\State=1-A'\HF=-76.0490211\MP2=-76
 .3214776\MP3=-76.3231813\MP4D=-76.3282494\MP4DQ=-76.323979\MP4SDQ=-76.
 3260912\CCSD=-76.3255555\CCSD(T)=-76.334641\RMSD=4.264e-09\PG=CS [SG(H
 2O1)]\\@
 The archive entry for this job was punched.


 GROWING OLD ISN'T SO BAD -- WHEN YOU CONSIDER THE ALTERNATIVE.

                     -- MAURICE CHEVALIER
 Job cpu time:       0 days  0 hours  1 minutes 36.7 seconds.
 Elapsed time:       0 days  0 hours  0 minutes 42.9 seconds.
 File lengths (MBytes):  RWF=     75 Int=      0 D2E=      0 Chk=      2 Scr=      1
 Normal termination of Gaussian 16 at Wed Feb  8 13:54:18 2023.
