 Entering Gaussian System, Link 0=/opt/cluster/programs/g16-c.01/g16/g16
 Input=/scratch/boittier/jobs/tmp.7262149/gaussian_17_water_ccsdt_adz.com
 Output=/scratch/boittier/jobs/tmp.7262149/gaussian_17_water_ccsdt_adz.out
 Initial command:
 /opt/cluster/programs/g16-c.01/g16/l1.exe "/scratch/boittier/jobs/tmp.7262149/Gau-52094.inp" -scrdir="/scratch/boittier/jobs/tmp.7262149/"
 Entering Link 1 = /opt/cluster/programs/g16-c.01/g16/l1.exe PID=     52095.
  
 Copyright (c) 1988-2019, Gaussian, Inc.  All Rights Reserved.
  
 This is part of the Gaussian(R) 16 program.  It is based on
 the Gaussian(R) 09 system (copyright 2009, Gaussian, Inc.),
 the Gaussian(R) 03 system (copyright 2003, Gaussian, Inc.),
 the Gaussian(R) 98 system (copyright 1998, Gaussian, Inc.),
 the Gaussian(R) 94 system (copyright 1995, Gaussian, Inc.),
 the Gaussian 92(TM) system (copyright 1992, Gaussian, Inc.),
 the Gaussian 90(TM) system (copyright 1990, Gaussian, Inc.),
 the Gaussian 88(TM) system (copyright 1988, Gaussian, Inc.),
 the Gaussian 86(TM) system (copyright 1986, Carnegie Mellon
 University), and the Gaussian 82(TM) system (copyright 1983,
 Carnegie Mellon University). Gaussian is a federally registered
 trademark of Gaussian, Inc.
  
 This software contains proprietary and confidential information,
 including trade secrets, belonging to Gaussian, Inc.
  
 This software is provided under written license and may be
 used, copied, transmitted, or stored only in accord with that
 written license.
  
 The following legend is applicable only to US Government
 contracts under FAR:
  
                    RESTRICTED RIGHTS LEGEND
  
 Use, reproduction and disclosure by the US Government is
 subject to restrictions as set forth in subparagraphs (a)
 and (c) of the Commercial Computer Software - Restricted
 Rights clause in FAR 52.227-19.
  
 Gaussian, Inc.
 340 Quinnipiac St., Bldg. 40, Wallingford CT 06492
  
  
 ---------------------------------------------------------------
 Warning -- This program may not be used in any manner that
 competes with the business of Gaussian, Inc. or will provide
 assistance to any competitor of Gaussian, Inc.  The licensee
 of this program is prohibited from giving any competitor of
 Gaussian, Inc. access to this program.  By using this program,
 the user acknowledges that Gaussian, Inc. is engaged in the
 business of creating and licensing software in the field of
 computational chemistry and represents and warrants to the
 licensee that it is not a competitor of Gaussian, Inc. and that
 it will not use this program in any manner prohibited above.
 ---------------------------------------------------------------
  

 Cite this work as:
 Gaussian 16, Revision C.01,
 M. J. Frisch, G. W. Trucks, H. B. Schlegel, G. E. Scuseria, 
 M. A. Robb, J. R. Cheeseman, G. Scalmani, V. Barone, 
 G. A. Petersson, H. Nakatsuji, X. Li, M. Caricato, A. V. Marenich, 
 J. Bloino, B. G. Janesko, R. Gomperts, B. Mennucci, H. P. Hratchian, 
 J. V. Ortiz, A. F. Izmaylov, J. L. Sonnenberg, D. Williams-Young, 
 F. Ding, F. Lipparini, F. Egidi, J. Goings, B. Peng, A. Petrone, 
 T. Henderson, D. Ranasinghe, V. G. Zakrzewski, J. Gao, N. Rega, 
 G. Zheng, W. Liang, M. Hada, M. Ehara, K. Toyota, R. Fukuda, 
 J. Hasegawa, M. Ishida, T. Nakajima, Y. Honda, O. Kitao, H. Nakai, 
 T. Vreven, K. Throssell, J. A. Montgomery, Jr., J. E. Peralta, 
 F. Ogliaro, M. J. Bearpark, J. J. Heyd, E. N. Brothers, K. N. Kudin, 
 V. N. Staroverov, T. A. Keith, R. Kobayashi, J. Normand, 
 K. Raghavachari, A. P. Rendell, J. C. Burant, S. S. Iyengar, 
 J. Tomasi, M. Cossi, J. M. Millam, M. Klene, C. Adamo, R. Cammi, 
 J. W. Ochterski, R. L. Martin, K. Morokuma, O. Farkas, 
 J. B. Foresman, and D. J. Fox, Gaussian, Inc., Wallingford CT, 2019.
 
 ******************************************
 Gaussian 16:  ES64L-G16RevC.01  3-Jul-2019
                 8-Feb-2023 
 ******************************************
 %nproc=4
 Will use up to    4 processors via shared memory.
 %mem=5760MB
 %chk=gaussian_17_water_ccsdt_adz.chk
 ----------------------------------------
 #P CCSD(T)/aug-cc-pVDZ scf(maxcycle=200)
 ----------------------------------------
 1/38=1,172=1/1;
 2/12=2,17=6,18=5,40=1/2;
 3/5=16,7=10,11=9,25=1,30=1/1,2,3;
 4//1;
 5/5=2,7=200,38=5/2;
 8/6=4,9=120000,10=1/1,4;
 9/5=7,14=2/13;
 6/7=2,8=2,9=2,10=2/1;
 99/5=1,9=1/99;
 Leave Link    1 at Wed Feb  8 14:47:10 2023, MaxMem=   754974720 cpu:               0.1 elap:               0.1
 (Enter /opt/cluster/programs/g16-c.01/g16/l101.exe)
 --------------
 Gaussian input
 --------------
 Symbolic Z-matrix:
 Charge =  0 Multiplicity = 1
 O                     0.        0.11751   0. 
 H                     0.71834  -0.43951   0. 
 H                    -0.83196  -0.24872   0. 
 
 ITRead=  0  0  0
 MicOpt= -1 -1 -1
 NAtoms=      3 NQM=        3 NQMF=       0 NMMI=      0 NMMIF=      0
                NMic=       0 NMicF=      0.
                    Isotopes and Nuclear Properties:
 (Nuclear quadrupole moments (NQMom) in fm**2, nuclear magnetic moments (NMagM)
  in nuclear magnetons)

  Atom         1           2           3
 IAtWgt=          16           1           1
 AtmWgt=  15.9949146   1.0078250   1.0078250
 NucSpn=           0           1           1
 AtZEff=  -0.0000000  -0.0000000  -0.0000000
 NQMom=    0.0000000   0.0000000   0.0000000
 NMagM=    0.0000000   2.7928460   2.7928460
 AtZNuc=   8.0000000   1.0000000   1.0000000
 Leave Link  101 at Wed Feb  8 14:47:10 2023, MaxMem=   754974720 cpu:               0.6 elap:               0.2
 (Enter /opt/cluster/programs/g16-c.01/g16/l202.exe)
                          Input orientation:                          
 ---------------------------------------------------------------------
 Center     Atomic      Atomic             Coordinates (Angstroms)
 Number     Number       Type             X           Y           Z
 ---------------------------------------------------------------------
      1          8           0        0.000000    0.117510    0.000000
      2          1           0        0.718337   -0.439511    0.000000
      3          1           0       -0.831961   -0.248716    0.000000
 ---------------------------------------------------------------------
                    Distance matrix (angstroms):
                    1          2          3
     1  O    0.000000
     2  H    0.909000   0.000000
     3  H    0.909000   1.561995   0.000000
 Stoichiometry    H2O
 Framework group  C2V[C2(O),SGV(H2)]
 Deg. of freedom     2
 Full point group                 C2V     NOp   4
 Largest Abelian subgroup         C2V     NOp   4
 Largest concise Abelian subgroup C2      NOp   2
                         Standard orientation:                         
 ---------------------------------------------------------------------
 Center     Atomic      Atomic             Coordinates (Angstroms)
 Number     Number       Type             X           Y           Z
 ---------------------------------------------------------------------
      1          8           0       -0.000000   -0.000000    0.093021
      2          1           0        0.000000    0.780998   -0.372085
      3          1           0       -0.000000   -0.780998   -0.372085
 ---------------------------------------------------------------------
 Rotational constants (GHZ):        1305.0980572         411.0576216         312.6001388
 Leave Link  202 at Wed Feb  8 14:47:10 2023, MaxMem=   754974720 cpu:               0.2 elap:               0.1
 (Enter /opt/cluster/programs/g16-c.01/g16/l301.exe)
 Standard basis: Aug-CC-pVDZ (5D, 7F)
 Ernie: Thresh=  0.10000D-02 Tol=  0.10000D-05 Strict=F.
 Ernie:  2 primitive shells out of 39 were deleted.
 There are    20 symmetry adapted cartesian basis functions of A1  symmetry.
 There are     4 symmetry adapted cartesian basis functions of A2  symmetry.
 There are     7 symmetry adapted cartesian basis functions of B1  symmetry.
 There are    12 symmetry adapted cartesian basis functions of B2  symmetry.
 There are    18 symmetry adapted basis functions of A1  symmetry.
 There are     4 symmetry adapted basis functions of A2  symmetry.
 There are     7 symmetry adapted basis functions of B1  symmetry.
 There are    12 symmetry adapted basis functions of B2  symmetry.
    41 basis functions,    65 primitive gaussians,    43 cartesian basis functions
     5 alpha electrons        5 beta electrons
       nuclear repulsion energy         9.6532332402 Hartrees.
 IExCor=    0 DFT=F Ex=HF Corr=None ExCW=0 ScaHFX=  1.000000
 ScaDFX=  1.000000  1.000000  1.000000  1.000000 ScalE2=  1.000000  1.000000
 IRadAn=      5 IRanWt=     -1 IRanGd=            0 ICorTp=0 IEmpDi=  4
 NAtoms=    3 NActive=    3 NUniq=    2 SFac= 2.25D+00 NAtFMM=   60 NAOKFM=F Big=F
 Integral buffers will be    131072 words long.
 Raffenetti 1 integral format.
 Two-electron integral symmetry is turned on.
 Leave Link  301 at Wed Feb  8 14:47:10 2023, MaxMem=   754974720 cpu:               0.3 elap:               0.1
 (Enter /opt/cluster/programs/g16-c.01/g16/l302.exe)
 NPDir=0 NMtPBC=     1 NCelOv=     1 NCel=       1 NClECP=     1 NCelD=      1
         NCelK=      1 NCelE2=     1 NClLst=     1 CellRange=     0.0.
 One-electron integrals computed using PRISM.
 One-electron integral symmetry used in STVInt
 NBasis=    41 RedAO= T EigKep=  2.60D-03  NBF=    18     4     7    12
 NBsUse=    41 1.00D-06 EigRej= -1.00D+00 NBFU=    18     4     7    12
 Leave Link  302 at Wed Feb  8 14:47:11 2023, MaxMem=   754974720 cpu:               1.5 elap:               0.8
 (Enter /opt/cluster/programs/g16-c.01/g16/l303.exe)
 DipDrv:  MaxL=1.
 Leave Link  303 at Wed Feb  8 14:47:11 2023, MaxMem=   754974720 cpu:               0.5 elap:               0.3
 (Enter /opt/cluster/programs/g16-c.01/g16/l401.exe)
 ExpMin= 2.97D-02 ExpMax= 1.17D+04 ExpMxC= 4.01D+02 IAcc=3 IRadAn=         5 AccDes= 0.00D+00
 Harris functional with IExCor=  205 and IRadAn=       5 diagonalized for initial guess.
 HarFok:  IExCor=  205 AccDes= 0.00D+00 IRadAn=         5 IDoV= 1 UseB2=F ITyADJ=14
 ICtDFT=  3500011 ScaDFX=  1.000000  1.000000  1.000000  1.000000
 FoFCou: FMM=F IPFlag=           0 FMFlag=      100000 FMFlg1=           0
         NFxFlg=           0 DoJE=T BraDBF=F KetDBF=T FulRan=T
         wScrn=  0.000000 ICntrl=       500 IOpCl=  0 I1Cent=   200000004 NGrid=           0
         NMat0=    1 NMatS0=      1 NMatT0=    0 NMatD0=    1 NMtDS0=    0 NMtDT0=    0
 Petite list used in FoFCou.
 Harris En= -76.1225227420899    
 JPrj=0 DoOrth=F DoCkMO=F.
 Initial guess orbital symmetries:
       Occupied  (A1) (A1) (B2) (A1) (B1)
       Virtual   (A1) (B2) (A1) (B1) (A1) (B2) (B2) (A1) (A2) (A1)
                 (B1) (B2) (A1) (B2) (B2) (A1) (B1) (A1) (A2) (A1)
                 (B1) (B2) (A1) (B2) (B1) (A2) (B2) (A1) (A1) (B2)
                 (A1) (B1) (A1) (A2) (A1) (B2)
 The electronic state of the initial guess is 1-A1.
 Leave Link  401 at Wed Feb  8 14:47:12 2023, MaxMem=   754974720 cpu:               1.5 elap:               0.5
 (Enter /opt/cluster/programs/g16-c.01/g16/l502.exe)
 Keep R1 ints in memory in symmetry-blocked form, NReq=1211530.
 FoFCou: FMM=F IPFlag=           0 FMFlag=           0 FMFlg1=           0
         NFxFlg=           0 DoJE=F BraDBF=F KetDBF=F FulRan=T
         wScrn=  0.000000 ICntrl=       600 IOpCl=  0 I1Cent=           0 NGrid=           0
         NMat0=    1 NMatS0=    861 NMatT0=    0 NMatD0=    1 NMtDS0=    0 NMtDT0=    0
 Petite list used in FoFCou.
 Closed shell SCF:
 Using DIIS extrapolation, IDIIS=  1040.
 NGot=   754974720 LenX=   754868251 LenY=   754865961
 Requested convergence on RMS density matrix=1.00D-08 within 200 cycles.
 Requested convergence on MAX density matrix=1.00D-06.
 Requested convergence on             energy=1.00D-06.
 No special actions if energy rises.

 Cycle   1  Pass 1  IDiag  1:
 E= -75.9522318876998    
 DIIS: error= 5.40D-02 at cycle   1 NSaved=   1.
 NSaved= 1 IEnMin= 1 EnMin= -75.9522318876998     IErMin= 1 ErrMin= 5.40D-02
 ErrMax= 5.40D-02  0.00D+00 EMaxC= 1.00D-01 BMatC= 1.30D-01 BMatP= 1.30D-01
 IDIUse=3 WtCom= 4.60D-01 WtEn= 5.40D-01
 Coeff-Com:  0.100D+01
 Coeff-En:   0.100D+01
 Coeff:      0.100D+01
 Gap=     0.452 Goal=   None    Shift=    0.000
 GapD=    0.452 DampG=2.000 DampE=0.500 DampFc=1.0000 IDamp=-1.
 RMSDP=6.58D-03 MaxDP=1.26D-01              OVMax= 1.24D-01

 Cycle   2  Pass 1  IDiag  1:
 E= -76.0040683860956     Delta-E=       -0.051836498396 Rises=F Damp=F
 DIIS: error= 3.88D-02 at cycle   2 NSaved=   2.
 NSaved= 2 IEnMin= 2 EnMin= -76.0040683860956     IErMin= 2 ErrMin= 3.88D-02
 ErrMax= 3.88D-02  0.00D+00 EMaxC= 1.00D-01 BMatC= 4.61D-02 BMatP= 1.30D-01
 IDIUse=3 WtCom= 6.12D-01 WtEn= 3.88D-01
 Coeff-Com:  0.363D+00 0.637D+00
 Coeff-En:   0.171D+00 0.829D+00
 Coeff:      0.289D+00 0.711D+00
 Gap=     0.567 Goal=   None    Shift=    0.000
 RMSDP=2.94D-03 MaxDP=5.51D-02 DE=-5.18D-02 OVMax= 5.89D-02

 Cycle   3  Pass 1  IDiag  1:
 E= -76.0349470123169     Delta-E=       -0.030878626221 Rises=F Damp=F
 DIIS: error= 5.25D-03 at cycle   3 NSaved=   3.
 NSaved= 3 IEnMin= 3 EnMin= -76.0349470123169     IErMin= 3 ErrMin= 5.25D-03
 ErrMax= 5.25D-03  0.00D+00 EMaxC= 1.00D-01 BMatC= 1.28D-03 BMatP= 4.61D-02
 IDIUse=3 WtCom= 9.48D-01 WtEn= 5.25D-02
 Coeff-Com: -0.356D-01 0.996D-01 0.936D+00
 Coeff-En:   0.000D+00 0.000D+00 0.100D+01
 Coeff:     -0.337D-01 0.944D-01 0.939D+00
 Gap=     0.546 Goal=   None    Shift=    0.000
 RMSDP=4.87D-04 MaxDP=8.35D-03 DE=-3.09D-02 OVMax= 8.53D-03

 Cycle   4  Pass 1  IDiag  1:
 E= -76.0358625670277     Delta-E=       -0.000915554711 Rises=F Damp=F
 DIIS: error= 4.48D-04 at cycle   4 NSaved=   4.
 NSaved= 4 IEnMin= 4 EnMin= -76.0358625670277     IErMin= 4 ErrMin= 4.48D-04
 ErrMax= 4.48D-04  0.00D+00 EMaxC= 1.00D-01 BMatC= 5.33D-06 BMatP= 1.28D-03
 IDIUse=3 WtCom= 9.96D-01 WtEn= 4.48D-03
 Coeff-Com:  0.864D-02-0.436D-01-0.317D+00 0.135D+01
 Coeff-En:   0.000D+00 0.000D+00 0.000D+00 0.100D+01
 Coeff:      0.860D-02-0.434D-01-0.316D+00 0.135D+01
 Gap=     0.547 Goal=   None    Shift=    0.000
 RMSDP=1.00D-04 MaxDP=8.02D-04 DE=-9.16D-04 OVMax= 2.07D-03

 Cycle   5  Pass 1  IDiag  1:
 E= -76.0358749944943     Delta-E=       -0.000012427467 Rises=F Damp=F
 DIIS: error= 1.15D-04 at cycle   5 NSaved=   5.
 NSaved= 5 IEnMin= 5 EnMin= -76.0358749944943     IErMin= 5 ErrMin= 1.15D-04
 ErrMax= 1.15D-04  0.00D+00 EMaxC= 1.00D-01 BMatC= 2.00D-07 BMatP= 5.33D-06
 IDIUse=3 WtCom= 9.99D-01 WtEn= 1.15D-03
 Coeff-Com: -0.750D-03 0.610D-02 0.427D-01-0.341D+00 0.129D+01
 Coeff-En:   0.000D+00 0.000D+00 0.000D+00 0.000D+00 0.100D+01
 Coeff:     -0.749D-03 0.609D-02 0.426D-01-0.340D+00 0.129D+01
 Gap=     0.547 Goal=   None    Shift=    0.000
 RMSDP=2.30D-05 MaxDP=2.59D-04 DE=-1.24D-05 OVMax= 5.35D-04

 Cycle   6  Pass 1  IDiag  1:
 E= -76.0358756003549     Delta-E=       -0.000000605861 Rises=F Damp=F
 DIIS: error= 1.92D-05 at cycle   6 NSaved=   6.
 NSaved= 6 IEnMin= 6 EnMin= -76.0358756003549     IErMin= 6 ErrMin= 1.92D-05
 ErrMax= 1.92D-05  0.00D+00 EMaxC= 1.00D-01 BMatC= 6.26D-09 BMatP= 2.00D-07
 IDIUse=1 WtCom= 1.00D+00 WtEn= 0.00D+00
 Coeff-Com: -0.221D-03 0.868D-03 0.625D-02-0.647D-02-0.199D+00 0.120D+01
 Coeff:     -0.221D-03 0.868D-03 0.625D-02-0.647D-02-0.199D+00 0.120D+01
 Gap=     0.547 Goal=   None    Shift=    0.000
 RMSDP=3.33D-06 MaxDP=5.48D-05 DE=-6.06D-07 OVMax= 9.95D-05

 Cycle   7  Pass 1  IDiag  1:
 E= -76.0358756200108     Delta-E=       -0.000000019656 Rises=F Damp=F
 DIIS: error= 5.41D-06 at cycle   7 NSaved=   7.
 NSaved= 7 IEnMin= 7 EnMin= -76.0358756200108     IErMin= 7 ErrMin= 5.41D-06
 ErrMax= 5.41D-06  0.00D+00 EMaxC= 1.00D-01 BMatC= 3.71D-10 BMatP= 6.26D-09
 IDIUse=1 WtCom= 1.00D+00 WtEn= 0.00D+00
 Coeff-Com:  0.115D-03-0.636D-03-0.463D-02 0.227D-01-0.664D-02-0.373D+00
 Coeff-Com:  0.136D+01
 Coeff:      0.115D-03-0.636D-03-0.463D-02 0.227D-01-0.664D-02-0.373D+00
 Coeff:      0.136D+01
 Gap=     0.547 Goal=   None    Shift=    0.000
 RMSDP=7.31D-07 MaxDP=1.50D-05 DE=-1.97D-08 OVMax= 2.22D-05

 Cycle   8  Pass 1  IDiag  1:
 E= -76.0358756210294     Delta-E=       -0.000000001019 Rises=F Damp=F
 DIIS: error= 6.58D-07 at cycle   8 NSaved=   8.
 NSaved= 8 IEnMin= 8 EnMin= -76.0358756210294     IErMin= 8 ErrMin= 6.58D-07
 ErrMax= 6.58D-07  0.00D+00 EMaxC= 1.00D-01 BMatC= 1.01D-11 BMatP= 3.71D-10
 IDIUse=1 WtCom= 1.00D+00 WtEn= 0.00D+00
 Coeff-Com: -0.211D-04 0.129D-03 0.978D-03-0.595D-02 0.895D-02 0.622D-01
 Coeff-Com: -0.389D+00 0.132D+01
 Coeff:     -0.211D-04 0.129D-03 0.978D-03-0.595D-02 0.895D-02 0.622D-01
 Coeff:     -0.389D+00 0.132D+01
 Gap=     0.547 Goal=   None    Shift=    0.000
 RMSDP=1.49D-07 MaxDP=2.19D-06 DE=-1.02D-09 OVMax= 3.00D-06

 Cycle   9  Pass 1  IDiag  1:
 E= -76.0358756210538     Delta-E=       -0.000000000024 Rises=F Damp=F
 DIIS: error= 6.75D-08 at cycle   9 NSaved=   9.
 NSaved= 9 IEnMin= 9 EnMin= -76.0358756210538     IErMin= 9 ErrMin= 6.75D-08
 ErrMax= 6.75D-08  0.00D+00 EMaxC= 1.00D-01 BMatC= 9.08D-14 BMatP= 1.01D-11
 IDIUse=1 WtCom= 1.00D+00 WtEn= 0.00D+00
 Coeff-Com:  0.100D-05-0.785D-05-0.669D-04 0.593D-03-0.157D-02-0.281D-02
 Coeff-Com:  0.401D-01-0.211D+00 0.117D+01
 Coeff:      0.100D-05-0.785D-05-0.669D-04 0.593D-03-0.157D-02-0.281D-02
 Coeff:      0.401D-01-0.211D+00 0.117D+01
 Gap=     0.547 Goal=   None    Shift=    0.000
 RMSDP=1.40D-08 MaxDP=1.82D-07 DE=-2.44D-11 OVMax= 2.70D-07

 Cycle  10  Pass 1  IDiag  1:
 E= -76.0358756210540     Delta-E=       -0.000000000000 Rises=F Damp=F
 DIIS: error= 1.42D-08 at cycle  10 NSaved=  10.
 NSaved=10 IEnMin=10 EnMin= -76.0358756210540     IErMin=10 ErrMin= 1.42D-08
 ErrMax= 1.42D-08  0.00D+00 EMaxC= 1.00D-01 BMatC= 2.84D-15 BMatP= 9.08D-14
 IDIUse=1 WtCom= 1.00D+00 WtEn= 0.00D+00
 Coeff-Com: -0.263D-07 0.704D-06 0.865D-05-0.117D-03 0.416D-03 0.379D-04
 Coeff-Com: -0.747D-02 0.480D-01-0.381D+00 0.134D+01
 Coeff:     -0.263D-07 0.704D-06 0.865D-05-0.117D-03 0.416D-03 0.379D-04
 Coeff:     -0.747D-02 0.480D-01-0.381D+00 0.134D+01
 Gap=     0.547 Goal=   None    Shift=    0.000
 RMSDP=2.65D-09 MaxDP=2.21D-08 DE=-1.99D-13 OVMax= 3.61D-08

 SCF Done:  E(RHF) =  -76.0358756211     A.U. after   10 cycles
            NFock= 10  Conv=0.27D-08     -V/T= 1.9989
 KE= 7.611719016615D+01 PE=-1.999217829874D+02 EE= 3.811548396008D+01
 Leave Link  502 at Wed Feb  8 14:47:14 2023, MaxMem=   754974720 cpu:               5.4 elap:               1.9
 (Enter /opt/cluster/programs/g16-c.01/g16/l801.exe)
 Windowed orbitals will be sorted by symmetry type.
 ExpMin= 2.97D-02 ExpMax= 1.17D+04 ExpMxC= 4.01D+02 IAcc=3 IRadAn=         5 AccDes= 0.00D+00
 HarFok:  IExCor=  205 AccDes= 0.00D+00 IRadAn=         5 IDoV=-2 UseB2=F ITyADJ=14
 ICtDFT= 12500011 ScaDFX=  1.000000  1.000000  1.000000  1.000000
 Largest valence mixing into a core orbital is  5.85D-05
 Largest core mixing into a valence orbital is  1.67D-05
 Range of M.O.s used for correlation:     2    41
 NBasis=    41 NAE=     5 NBE=     5 NFC=     1 NFV=     0
 NROrb=     40 NOA=     4 NOB=     4 NVA=    36 NVB=    36
 Leave Link  801 at Wed Feb  8 14:47:14 2023, MaxMem=   754974720 cpu:               0.6 elap:               0.3
 (Enter /opt/cluster/programs/g16-c.01/g16/l804.exe)
 Closed-shell transformation, MDV=   754974720 ITran=4 ISComp=2.
 Unit  1 TFree=         57018 TCopy=        140846.
 Semi-Direct transformation.
 ModeAB=           4 MOrb=             4 LenV=     754769439
 LASXX=        30213 LTotXX=       30213 LenRXX=       63236
 LTotAB=       33023 MaxLAS=      110560 LenRXY=           0
 NonZer=       93449 LenScr=      785920 LnRSAI=      110560
 LnScr1=      785920 LExtra=           0 Total=      1745636
 MaxDsk=          -1 SrtSym=           T ITran=            4
 DoSDTr:  NPSUse=  4
 JobTyp=0 Pass  1:  I=   1 to   4.
 (rs|ai) integrals will be sorted in core.
 Complete sort for first half transformation.
 First half transformation complete.
 Complete sort for second half transformation.
 Second half transformation complete.
 Spin components of T(2) and E(2):
     alpha-alpha T2 =       0.7310871779D-02 E2=     -0.2742745781D-01
     alpha-beta  T2 =       0.4098681899D-01 E2=     -0.1600334102D+00
     beta-beta   T2 =       0.7310871779D-02 E2=     -0.2742745781D-01
 ANorm=    0.1027428130D+01
 E2 =    -0.2148883258D+00 EUMP2 =    -0.76250763946889D+02
 Leave Link  804 at Wed Feb  8 14:47:14 2023, MaxMem=   754974720 cpu:               0.4 elap:               0.1
 (Enter /opt/cluster/programs/g16-c.01/g16/l913.exe)
 CIDS:  MDV=   754974720.
 Frozen-core window:  NFC=   1 NFV=   0.
 IFCWin=0 IBDFC=1 NFBD=     0     0 NFCmp=     0     0 NFFFC=     0     0
 Using DD3R+UMP44R for 1st iteration.
 Using DD4RQ for 2nd and later iterations.
 Keep R2 and R3 ints in memory in symmetry-blocked form, NReq=1214306.
 FoFCou: FMM=F IPFlag=           0 FMFlag=           0 FMFlg1=           0
         NFxFlg=           0 DoJE=F BraDBF=F KetDBF=F FulRan=T
         wScrn=  0.000000 ICntrl=       600 IOpCl=  0 I1Cent=           0 NGrid=           0
         NMat0=    1 NMatS0=    861 NMatT0=    0 NMatD0=    1 NMtDS0=    0 NMtDT0=    0
 Petite list used in FoFCou.
 CIDS: In Core Option IDoMem=           1.
 CCSD(T)
 =======
 Iterations=  50 Convergence= 0.100D-06
 Produce multiple copies of IABC intergrals
 Iteration Nr.   1
 **********************
 DD1Dir will call FoFMem   1 times, MxPair=        20
 NAB=    10 NAA=     0 NBB=     0.
 MP4(R+Q)=  0.23407969D-02
 Maximum subspace dimension=  5
 A-vector RMS=  5.0689418D-03 Max=  1.5746216D-02 conv= 1.00D-05.
 RLE energy=       -0.2179920607
 E3=       -0.54899008D-02        EUMP3=      -0.76256253848D+02
 E4(DQ)=   -0.11948183D-02        UMP4(DQ)=   -0.76257448666D+02
 E4(SDQ)=  -0.27072184D-02        UMP4(SDQ)=  -0.76258961066D+02
 VARIATIONAL ENERGIES WITH THE FIRST-ORDER WAVEFUNCTION:
 DE(Corr)= -0.21794791     E(Corr)=     -76.253823529    
 NORM(A)=   0.10285486D+01
 Iteration Nr.   2
 **********************
 DD1Dir will call FoFMem   1 times, MxPair=        20
 NAB=    10 NAA=     0 NBB=     0.
 A-vector RMS=  5.8016264D-04 Max=  2.7800890D-03 conv= 1.00D-05.
 RLE energy=       -0.2225410987
 DE(Corr)= -0.22200939     E(CORR)=     -76.257885011     Delta=-4.06D-03
 NORM(A)=   0.10304059D+01
 Iteration Nr.   3
 **********************
 DD1Dir will call FoFMem   1 times, MxPair=        20
 NAB=    10 NAA=     0 NBB=     0.
 A-vector RMS=  6.7514980D-04 Max=  2.5988117D-03 conv= 1.00D-05.
 RLE energy=       -0.2228575149
 DE(Corr)= -0.22250405     E(CORR)=     -76.258379666     Delta=-4.95D-04
 NORM(A)=   0.10308254D+01
 Iteration Nr.   4
 **********************
 DD1Dir will call FoFMem   1 times, MxPair=        20
 NAB=    10 NAA=     0 NBB=     0.
 A-vector RMS=  7.8154362D-05 Max=  3.3469086D-04 conv= 1.00D-05.
 RLE energy=       -0.2228864896
 DE(Corr)= -0.22286273     E(CORR)=     -76.258738349     Delta=-3.59D-04
 NORM(A)=   0.10309171D+01
 Iteration Nr.   5
 **********************
 DD1Dir will call FoFMem   1 times, MxPair=        20
 NAB=    10 NAA=     0 NBB=     0.
 A-vector RMS=  3.3881464D-05 Max=  1.5151273D-04 conv= 1.00D-05.
 RLE energy=       -0.2228900450
 DE(Corr)= -0.22288748     E(CORR)=     -76.258763098     Delta=-2.47D-05
 NORM(A)=   0.10309317D+01
 Iteration Nr.   6
 **********************
 DD1Dir will call FoFMem   1 times, MxPair=        20
 NAB=    10 NAA=     0 NBB=     0.
 A-vector RMS=  8.9473164D-06 Max=  3.7186611D-05 conv= 1.00D-05.
 RLE energy=       -0.2228879265
 DE(Corr)= -0.22288893     E(CORR)=     -76.258764554     Delta=-1.46D-06
 NORM(A)=   0.10309334D+01
 Iteration Nr.   7
 **********************
 DD1Dir will call FoFMem   1 times, MxPair=        20
 NAB=    10 NAA=     0 NBB=     0.
 A-vector RMS=  3.0944552D-06 Max=  1.1723149D-05 conv= 1.00D-05.
 RLE energy=       -0.2228884126
 DE(Corr)= -0.22288890     E(CORR)=     -76.258764524     Delta= 3.04D-08
 NORM(A)=   0.10309340D+01
 Iteration Nr.   8
 **********************
 DD1Dir will call FoFMem   1 times, MxPair=        20
 NAB=    10 NAA=     0 NBB=     0.
 A-vector RMS=  1.0045595D-06 Max=  4.6416022D-06 conv= 1.00D-05.
 RLE energy=       -0.2228886025
 DE(Corr)= -0.22288866     E(CORR)=     -76.258764278     Delta= 2.46D-07
 NORM(A)=   0.10309343D+01
 Iteration Nr.   9
 **********************
 DD1Dir will call FoFMem   1 times, MxPair=        20
 NAB=    10 NAA=     0 NBB=     0.
 A-vector RMS=  2.4712591D-07 Max=  8.5212710D-07 conv= 1.00D-05.
 RLE energy=       -0.2228887533
 DE(Corr)= -0.22288876     E(CORR)=     -76.258764384     Delta=-1.06D-07
 NORM(A)=   0.10309344D+01
 Iteration Nr.  10
 **********************
 DD1Dir will call FoFMem   1 times, MxPair=        20
 NAB=    10 NAA=     0 NBB=     0.
 A-vector RMS=  1.1022800D-07 Max=  3.3874457D-07 conv= 1.00D-05.
 RLE energy=       -0.2228887900
 DE(Corr)= -0.22288878     E(CORR)=     -76.258764397     Delta=-1.25D-08
 NORM(A)=   0.10309345D+01
 CI/CC converged in   10 iterations to DelEn=-1.25D-08 Conv= 1.00D-07 ErrA1= 1.10D-07 Conv= 1.00D-05
 Wavefunction amplitudes converged. E(Corr)=     -76.258764397    
 Largest amplitude= 3.33D-02
 IPart=  3 IA=    3   10.95% done.
 IPart=  1 IA=    5   21.27% done.
 IPart=  2 IA=    7   30.95% done.
 IPart=  1 IA=    9   40.00% done.
 IPart=  3 IA=   12   52.38% done.
 IPart=  1 IA=   15   63.33% done.
 IPart=  4 IA=   18   72.86% done.
 IPart=  1 IA=   21   80.95% done.
 IPart=  3 IA=   26   91.27% done.
 Time for triples=        0.81 seconds.
 T4(CCSD)= -0.51972126D-02
 T5(CCSD)=  0.36562255D-03
 CCSD(T)= -0.76263595987D+02
 Discarding MO integrals.
 Leave Link  913 at Wed Feb  8 14:47:29 2023, MaxMem=   754974720 cpu:              29.8 elap:              15.0
 (Enter /opt/cluster/programs/g16-c.01/g16/l601.exe)
 Copying SCF densities to generalized density rwf, IOpCl= 0 IROHF=0.

 **********************************************************************

            Population analysis using the SCF Density.

 **********************************************************************

 Orbital symmetries:
       Occupied  (A1) (A1) (B2) (A1) (B1)
       Virtual   (A1) (B2) (A1) (B1) (A1) (B2) (B2) (A1) (A2) (A1)
                 (B1) (B2) (B2) (A1) (B2) (A1) (B1) (A1) (A2) (A1)
                 (B2) (B1) (A1) (B2) (B1) (A2) (A1) (B2) (A1) (B2)
                 (A1) (B1) (A1) (A2) (A1) (B2)
 The electronic state is 1-A1.
 Alpha  occ. eigenvalues --  -20.56256  -1.37279  -0.77406  -0.56735  -0.51005
 Alpha virt. eigenvalues --    0.03722   0.05697   0.17421   0.19236   0.22343
 Alpha virt. eigenvalues --    0.22566   0.31303   0.31888   0.38215   0.43988
 Alpha virt. eigenvalues --    0.46324   0.53206   0.65412   0.66497   0.88093
 Alpha virt. eigenvalues --    0.89593   1.07718   1.08494   1.15320   1.42019
 Alpha virt. eigenvalues --    1.49667   1.51347   1.58994   2.01820   2.09457
 Alpha virt. eigenvalues --    2.09603   2.48800   2.53336   2.73414   2.80292
 Alpha virt. eigenvalues --    2.86904   3.65994   3.67307   3.72173   4.26366
 Alpha virt. eigenvalues --    4.34521
          Condensed to atoms (all electrons):
               1          2          3
     1  O    7.494700   0.365003   0.365003
     2  H    0.365003   0.594324  -0.071680
     3  H    0.365003  -0.071680   0.594324
 Mulliken charges:
               1
     1  O   -0.224706
     2  H    0.112353
     3  H    0.112353
 Sum of Mulliken charges =  -0.00000
 Mulliken charges with hydrogens summed into heavy atoms:
               1
     1  O   -0.000000
 Electronic spatial extent (au):  <R**2>=             18.9506
 Charge=             -0.0000 electrons
 Dipole moment (field-independent basis, Debye):
    X=             -0.0000    Y=             -0.0000    Z=             -1.7212  Tot=              1.7212
 Quadrupole moment (field-independent basis, Debye-Ang):
   XX=             -7.4988   YY=             -3.8475   ZZ=             -6.6210
   XY=              0.0000   XZ=              0.0000   YZ=              0.0000
 Traceless Quadrupole moment (field-independent basis, Debye-Ang):
   XX=             -1.5097   YY=              2.1416   ZZ=             -0.6319
   XY=              0.0000   XZ=              0.0000   YZ=              0.0000
 Octapole moment (field-independent basis, Debye-Ang**2):
  XXX=              0.0000  YYY=             -0.0000  ZZZ=             -1.0150  XYY=             -0.0000
  XXY=              0.0000  XXZ=             -0.2927  XZZ=              0.0000  YZZ=             -0.0000
  YYZ=             -1.2256  XYZ=             -0.0000
 Hexadecapole moment (field-independent basis, Debye-Ang**3):
 XXXX=             -6.7557 YYYY=             -5.2726 ZZZZ=             -6.9820 XXXY=             -0.0000
 XXXZ=             -0.0000 YYYX=             -0.0000 YYYZ=              0.0000 ZZZX=             -0.0000
 ZZZY=             -0.0000 XXYY=             -2.3847 XXZZ=             -2.3115 YYZZ=             -1.9847
 XXYZ=             -0.0000 YYXZ=              0.0000 ZZXY=             -0.0000
 N-N= 9.653233240163D+00 E-N=-1.999217830796D+02  KE= 7.611719016615D+01
 Symmetry A1   KE= 6.804210625015D+01
 Symmetry A2   KE= 3.090005214181D-33
 Symmetry B1   KE= 4.427950349648D+00
 Symmetry B2   KE= 3.647133566348D+00
 Leave Link  601 at Wed Feb  8 14:47:29 2023, MaxMem=   754974720 cpu:               0.1 elap:               0.0
 (Enter /opt/cluster/programs/g16-c.01/g16/l9999.exe)
 Unable to Open any file for archive entry.
 1\1\GINC-NODE63\SP\RCCSD(T)-FC\Aug-CC-pVDZ\H2O1\BOITTIER\08-Feb-2023\0
 \\#P CCSD(T)/aug-cc-pVDZ scf(maxcycle=200)\\Gaussian input\\0,1\O,0,0.
 ,0.11751,0.\H,0,0.7183372325,-0.4395112028,0.\H,0,-0.8319613931,-0.248
 7156687,0.\\Version=ES64L-G16RevC.01\State=1-A1\HF=-76.0358756\MP2=-76
 .2507639\MP3=-76.2562538\MP4D=-76.2597895\MP4DQ=-76.2574487\MP4SDQ=-76
 .2589611\CCSD=-76.2587644\CCSD(T)=-76.263596\RMSD=2.652e-09\PG=C02V [C
 2(O1),SGV(H2)]\\@
 The archive entry for this job was punched.


 10 WHATSOEVER THY HAND FINDETH TO DO, DO IT WITH THY  
 MIGHT. FOR THERE IS NO WORK, NOR DEVICE, NOR KNOWLEDGE, NOR  
 WISDOM, IN THE GRAVE, WHITHER THOU GOEST.                    
 11 I RETURNED AND SAW UNDER THE SUN, THAT THE RACE IS NOT TO 
 THE SWIFT, NOR THE BATTLE TO THE STRONG, NEITHER YET BREAD TO
 THE WISE, NOR YET RICHES TO MEN OF UNDERSTANDING, NOR YET    
 FAVOR TO MEN OF SKILL. BUT TIME AND CHANCE HAPPEN TO THEM ALL.
 12 FOR MAN ALSO KNOWETH NOT HIS TIME. AS THE FISHES   
 THAT ARE TAKEN IN AN EVIL NET, AND AS THE BIRDS THAT ARE     
 CAUGHT IN THE SNARE. SO ARE THE SONS OF MEN SNARED IN AN EVIL
 TIME, WHEN IT FALLETH SUDDENLY UPON THEM.
                                         ECCLESIASTES 9
 Job cpu time:       0 days  0 hours  0 minutes 41.3 seconds.
 Elapsed time:       0 days  0 hours  0 minutes 19.4 seconds.
 File lengths (MBytes):  RWF=     20 Int=      0 D2E=      0 Chk=      1 Scr=      1
 Normal termination of Gaussian 16 at Wed Feb  8 14:47:29 2023.
