 Entering Gaussian System, Link 0=/opt/cluster/programs/g16-c.01/g16/g16
 Input=/scratch/boittier/jobs/tmp.7262345/gaussian_59_water_b3lyp_pdz.com
 Output=/scratch/boittier/jobs/tmp.7262345/gaussian_59_water_b3lyp_pdz.out
 Initial command:
 /opt/cluster/programs/g16-c.01/g16/l1.exe "/scratch/boittier/jobs/tmp.7262345/Gau-52551.inp" -scrdir="/scratch/boittier/jobs/tmp.7262345/"
 Entering Link 1 = /opt/cluster/programs/g16-c.01/g16/l1.exe PID=     52552.
  
 Copyright (c) 1988-2019, Gaussian, Inc.  All Rights Reserved.
  
 This is part of the Gaussian(R) 16 program.  It is based on
 the Gaussian(R) 09 system (copyright 2009, Gaussian, Inc.),
 the Gaussian(R) 03 system (copyright 2003, Gaussian, Inc.),
 the Gaussian(R) 98 system (copyright 1998, Gaussian, Inc.),
 the Gaussian(R) 94 system (copyright 1995, Gaussian, Inc.),
 the Gaussian 92(TM) system (copyright 1992, Gaussian, Inc.),
 the Gaussian 90(TM) system (copyright 1990, Gaussian, Inc.),
 the Gaussian 88(TM) system (copyright 1988, Gaussian, Inc.),
 the Gaussian 86(TM) system (copyright 1986, Carnegie Mellon
 University), and the Gaussian 82(TM) system (copyright 1983,
 Carnegie Mellon University). Gaussian is a federally registered
 trademark of Gaussian, Inc.
  
 This software contains proprietary and confidential information,
 including trade secrets, belonging to Gaussian, Inc.
  
 This software is provided under written license and may be
 used, copied, transmitted, or stored only in accord with that
 written license.
  
 The following legend is applicable only to US Government
 contracts under FAR:
  
                    RESTRICTED RIGHTS LEGEND
  
 Use, reproduction and disclosure by the US Government is
 subject to restrictions as set forth in subparagraphs (a)
 and (c) of the Commercial Computer Software - Restricted
 Rights clause in FAR 52.227-19.
  
 Gaussian, Inc.
 340 Quinnipiac St., Bldg. 40, Wallingford CT 06492
  
  
 ---------------------------------------------------------------
 Warning -- This program may not be used in any manner that
 competes with the business of Gaussian, Inc. or will provide
 assistance to any competitor of Gaussian, Inc.  The licensee
 of this program is prohibited from giving any competitor of
 Gaussian, Inc. access to this program.  By using this program,
 the user acknowledges that Gaussian, Inc. is engaged in the
 business of creating and licensing software in the field of
 computational chemistry and represents and warrants to the
 licensee that it is not a competitor of Gaussian, Inc. and that
 it will not use this program in any manner prohibited above.
 ---------------------------------------------------------------
  

 Cite this work as:
 Gaussian 16, Revision C.01,
 M. J. Frisch, G. W. Trucks, H. B. Schlegel, G. E. Scuseria, 
 M. A. Robb, J. R. Cheeseman, G. Scalmani, V. Barone, 
 G. A. Petersson, H. Nakatsuji, X. Li, M. Caricato, A. V. Marenich, 
 J. Bloino, B. G. Janesko, R. Gomperts, B. Mennucci, H. P. Hratchian, 
 J. V. Ortiz, A. F. Izmaylov, J. L. Sonnenberg, D. Williams-Young, 
 F. Ding, F. Lipparini, F. Egidi, J. Goings, B. Peng, A. Petrone, 
 T. Henderson, D. Ranasinghe, V. G. Zakrzewski, J. Gao, N. Rega, 
 G. Zheng, W. Liang, M. Hada, M. Ehara, K. Toyota, R. Fukuda, 
 J. Hasegawa, M. Ishida, T. Nakajima, Y. Honda, O. Kitao, H. Nakai, 
 T. Vreven, K. Throssell, J. A. Montgomery, Jr., J. E. Peralta, 
 F. Ogliaro, M. J. Bearpark, J. J. Heyd, E. N. Brothers, K. N. Kudin, 
 V. N. Staroverov, T. A. Keith, R. Kobayashi, J. Normand, 
 K. Raghavachari, A. P. Rendell, J. C. Burant, S. S. Iyengar, 
 J. Tomasi, M. Cossi, J. M. Millam, M. Klene, C. Adamo, R. Cammi, 
 J. W. Ochterski, R. L. Martin, K. Morokuma, O. Farkas, 
 J. B. Foresman, and D. J. Fox, Gaussian, Inc., Wallingford CT, 2019.
 
 ******************************************
 Gaussian 16:  ES64L-G16RevC.01  3-Jul-2019
                 8-Feb-2023 
 ******************************************
 %nproc=4
 Will use up to    4 processors via shared memory.
 %mem=5760MB
 %chk=gaussian_59_water_b3lyp_pdz.chk
 ---------------------------------
 #P B3LYP/6-31g* scf(maxcycle=200)
 ---------------------------------
 1/38=1,172=1/1;
 2/12=2,17=6,18=5,40=1/2;
 3/5=1,6=6,7=1,11=2,25=1,30=1,74=-5/1,2,3;
 4//1;
 5/5=2,7=200,38=5/2;
 6/7=2,8=2,9=2,10=2,28=1/1;
 99/5=1,9=1/99;
 Leave Link    1 at Wed Feb  8 14:50:38 2023, MaxMem=   754974720 cpu:               0.2 elap:               0.1
 (Enter /opt/cluster/programs/g16-c.01/g16/l101.exe)
 --------------
 Gaussian input
 --------------
 Symbolic Z-matrix:
 Charge =  0 Multiplicity = 1
 O                     0.        0.11751   0. 
 H                     0.71834  -0.43951   0. 
 H                    -0.94959  -0.2236    0. 
 
 ITRead=  0  0  0
 MicOpt= -1 -1 -1
 NAtoms=      3 NQM=        3 NQMF=       0 NMMI=      0 NMMIF=      0
                NMic=       0 NMicF=      0.
                    Isotopes and Nuclear Properties:
 (Nuclear quadrupole moments (NQMom) in fm**2, nuclear magnetic moments (NMagM)
  in nuclear magnetons)

  Atom         1           2           3
 IAtWgt=          16           1           1
 AtmWgt=  15.9949146   1.0078250   1.0078250
 NucSpn=           0           1           1
 AtZEff=  -0.0000000  -0.0000000  -0.0000000
 NQMom=    0.0000000   0.0000000   0.0000000
 NMagM=    0.0000000   2.7928460   2.7928460
 AtZNuc=   8.0000000   1.0000000   1.0000000
 Leave Link  101 at Wed Feb  8 14:50:38 2023, MaxMem=   754974720 cpu:               0.6 elap:               0.2
 (Enter /opt/cluster/programs/g16-c.01/g16/l202.exe)
                          Input orientation:                          
 ---------------------------------------------------------------------
 Center     Atomic      Atomic             Coordinates (Angstroms)
 Number     Number       Type             X           Y           Z
 ---------------------------------------------------------------------
      1          8           0        0.000000    0.117510    0.000000
      2          1           0        0.718337   -0.439511    0.000000
      3          1           0       -0.949594   -0.223595    0.000000
 ---------------------------------------------------------------------
                    Distance matrix (angstroms):
                    1          2          3
     1  O    0.000000
     2  H    0.909000   0.000000
     3  H    1.009000   1.681848   0.000000
 Stoichiometry    H2O
 Framework group  CS[SG(H2O)]
 Deg. of freedom     3
 Full point group                 CS      NOp   2
 Largest Abelian subgroup         CS      NOp   2
 Largest concise Abelian subgroup C1      NOp   1
                         Standard orientation:                         
 ---------------------------------------------------------------------
 Center     Atomic      Atomic             Coordinates (Angstroms)
 Number     Number       Type             X           Y           Z
 ---------------------------------------------------------------------
      1          8           0        0.000000    0.092742    0.000000
      2          1           0        0.834542   -0.267564    0.000000
      3          1           0       -0.834542   -0.474374    0.000000
 ---------------------------------------------------------------------
 Rotational constants (GHZ):        1340.5237954         352.6014389         279.1705006
 Leave Link  202 at Wed Feb  8 14:50:38 2023, MaxMem=   754974720 cpu:               0.1 elap:               0.0
 (Enter /opt/cluster/programs/g16-c.01/g16/l301.exe)
 Standard basis: 6-31G(d) (6D, 7F)
 Ernie: Thresh=  0.10000D-02 Tol=  0.10000D-05 Strict=F.
 There are    15 symmetry adapted cartesian basis functions of A'  symmetry.
 There are     4 symmetry adapted cartesian basis functions of A"  symmetry.
 There are    15 symmetry adapted basis functions of A'  symmetry.
 There are     4 symmetry adapted basis functions of A"  symmetry.
    19 basis functions,    36 primitive gaussians,    19 cartesian basis functions
     5 alpha electrons        5 beta electrons
       nuclear repulsion energy         9.1675222397 Hartrees.
 IExCor=  402 DFT=T Ex+Corr=B3LYP ExCW=0 ScaHFX=  0.200000
 ScaDFX=  0.800000  0.720000  1.000000  0.810000 ScalE2=  1.000000  1.000000
 IRadAn=      5 IRanWt=     -1 IRanGd=            0 ICorTp=0 IEmpDi=  4
 NAtoms=    3 NActive=    3 NUniq=    3 SFac= 1.00D+00 NAtFMM=   60 NAOKFM=F Big=F
 Integral buffers will be    131072 words long.
 Raffenetti 2 integral format.
 Two-electron integral symmetry is turned on.
 Leave Link  301 at Wed Feb  8 14:50:38 2023, MaxMem=   754974720 cpu:               0.2 elap:               0.1
 (Enter /opt/cluster/programs/g16-c.01/g16/l302.exe)
 NPDir=0 NMtPBC=     1 NCelOv=     1 NCel=       1 NClECP=     1 NCelD=      1
         NCelK=      1 NCelE2=     1 NClLst=     1 CellRange=     0.0.
 One-electron integrals computed using PRISM.
 One-electron integral symmetry used in STVInt
 NBasis=    19 RedAO= T EigKep=  2.25D-02  NBF=    15     4
 NBsUse=    19 1.00D-06 EigRej= -1.00D+00 NBFU=    15     4
 Precomputing XC quadrature grid using
 IXCGrd= 4 IRadAn=           5 IRanWt=          -1 IRanGd=           0 AccXCQ= 0.00D+00.
 Generated NRdTot=       0 NPtTot=           0 NUsed=           0 NTot=          32
 NSgBfM=    19    19    19    19    19 MxSgAt=     3 MxSgA2=     3.
 Leave Link  302 at Wed Feb  8 14:50:38 2023, MaxMem=   754974720 cpu:               0.9 elap:               0.3
 (Enter /opt/cluster/programs/g16-c.01/g16/l303.exe)
 DipDrv:  MaxL=1.
 Leave Link  303 at Wed Feb  8 14:50:39 2023, MaxMem=   754974720 cpu:               0.3 elap:               0.2
 (Enter /opt/cluster/programs/g16-c.01/g16/l401.exe)
 ExpMin= 1.61D-01 ExpMax= 5.48D+03 ExpMxC= 8.25D+02 IAcc=3 IRadAn=         5 AccDes= 0.00D+00
 Harris functional with IExCor=  402 and IRadAn=       5 diagonalized for initial guess.
 HarFok:  IExCor=  402 AccDes= 0.00D+00 IRadAn=         5 IDoV= 1 UseB2=F ITyADJ=14
 ICtDFT=  3500011 ScaDFX=  1.000000  1.000000  1.000000  1.000000
 FoFCou: FMM=F IPFlag=           0 FMFlag=      100000 FMFlg1=           0
         NFxFlg=           0 DoJE=T BraDBF=F KetDBF=T FulRan=T
         wScrn=  0.000000 ICntrl=       500 IOpCl=  0 I1Cent=   200000004 NGrid=           0
         NMat0=    1 NMatS0=      1 NMatT0=    0 NMatD0=    1 NMtDS0=    0 NMtDT0=    0
 Petite list used in FoFCou.
 Harris En= -76.4396473246983    
 JPrj=0 DoOrth=F DoCkMO=F.
 Initial guess orbital symmetries:
       Occupied  (A') (A') (A') (A') (A")
       Virtual   (A') (A') (A') (A") (A') (A') (A') (A') (A") (A')
                 (A") (A') (A') (A')
 The electronic state of the initial guess is 1-A'.
 Leave Link  401 at Wed Feb  8 14:50:39 2023, MaxMem=   754974720 cpu:               1.3 elap:               0.5
 (Enter /opt/cluster/programs/g16-c.01/g16/l502.exe)
 Keep R1 ints in memory in symmetry-blocked form, NReq=3470963.
 FoFCou: FMM=F IPFlag=           0 FMFlag=           0 FMFlg1=           0
         NFxFlg=           0 DoJE=F BraDBF=F KetDBF=F FulRan=T
         wScrn=  0.000000 ICntrl=       600 IOpCl=  0 I1Cent=           0 NGrid=           0
         NMat0=    1 NMatS0=    190 NMatT0=    0 NMatD0=    1 NMtDS0=    0 NMtDT0=    0
 Petite list used in FoFCou.
 Closed shell SCF:
 Using DIIS extrapolation, IDIIS=  1040.
 NGot=   754974720 LenX=   754962225 LenY=   754961343
 Requested convergence on RMS density matrix=1.00D-08 within 200 cycles.
 Requested convergence on MAX density matrix=1.00D-06.
 Requested convergence on             energy=1.00D-06.
 No special actions if energy rises.
 Integral accuracy reduced to 1.0D-05 until final iterations.

 Cycle   1  Pass 0  IDiag  1:
 E= -76.3117125800032    
 DIIS: error= 8.10D-02 at cycle   1 NSaved=   1.
 NSaved= 1 IEnMin= 1 EnMin= -76.3117125800032     IErMin= 1 ErrMin= 8.10D-02
 ErrMax= 8.10D-02  0.00D+00 EMaxC= 1.00D-01 BMatC= 1.14D-01 BMatP= 1.14D-01
 IDIUse=3 WtCom= 1.90D-01 WtEn= 8.10D-01
 Coeff-Com:  0.100D+01
 Coeff-En:   0.100D+01
 Coeff:      0.100D+01
 Gap=     0.197 Goal=   None    Shift=    0.000
 GapD=    0.197 DampG=1.000 DampE=0.500 DampFc=0.5000 IDamp=-1.
 Damping current iteration by 5.00D-01
 RMSDP=2.97D-02 MaxDP=1.96D-01              OVMax= 1.98D-01

 Cycle   2  Pass 0  IDiag  1:
 E= -76.3413957104000     Delta-E=       -0.029683130397 Rises=F Damp=T
 DIIS: error= 1.88D-02 at cycle   2 NSaved=   2.
 NSaved= 2 IEnMin= 2 EnMin= -76.3413957104000     IErMin= 2 ErrMin= 1.88D-02
 ErrMax= 1.88D-02  0.00D+00 EMaxC= 1.00D-01 BMatC= 6.25D-03 BMatP= 1.14D-01
 IDIUse=3 WtCom= 8.12D-01 WtEn= 1.88D-01
 Coeff-Com:  0.173D+00 0.827D+00
 Coeff-En:   0.286D+00 0.714D+00
 Coeff:      0.194D+00 0.806D+00
 Gap=     0.331 Goal=   None    Shift=    0.000
 RMSDP=3.66D-03 MaxDP=3.51D-02 DE=-2.97D-02 OVMax= 1.17D-01

 Cycle   3  Pass 0  IDiag  1:
 E= -76.3954459985261     Delta-E=       -0.054050288126 Rises=F Damp=F
 DIIS: error= 2.92D-03 at cycle   3 NSaved=   3.
 NSaved= 3 IEnMin= 3 EnMin= -76.3954459985261     IErMin= 3 ErrMin= 2.92D-03
 ErrMax= 2.92D-03  0.00D+00 EMaxC= 1.00D-01 BMatC= 1.78D-04 BMatP= 6.25D-03
 IDIUse=3 WtCom= 9.71D-01 WtEn= 2.92D-02
 Coeff-Com:  0.383D-01 0.222D-01 0.939D+00
 Coeff-En:   0.000D+00 0.000D+00 0.100D+01
 Coeff:      0.372D-01 0.216D-01 0.941D+00
 Gap=     0.345 Goal=   None    Shift=    0.000
 RMSDP=4.22D-04 MaxDP=2.99D-03 DE=-5.41D-02 OVMax= 2.79D-03

 Cycle   4  Pass 0  IDiag  1:
 E= -76.3955649006788     Delta-E=       -0.000118902153 Rises=F Damp=F
 DIIS: error= 3.72D-04 at cycle   4 NSaved=   4.
 NSaved= 4 IEnMin= 4 EnMin= -76.3955649006788     IErMin= 4 ErrMin= 3.72D-04
 ErrMax= 3.72D-04  0.00D+00 EMaxC= 1.00D-01 BMatC= 2.65D-06 BMatP= 1.78D-04
 IDIUse=3 WtCom= 9.96D-01 WtEn= 3.72D-03
 Coeff-Com:  0.498D-02-0.151D-01 0.185D+00 0.825D+00
 Coeff-En:   0.000D+00 0.000D+00 0.000D+00 0.100D+01
 Coeff:      0.496D-02-0.150D-01 0.184D+00 0.826D+00
 Gap=     0.346 Goal=   None    Shift=    0.000
 RMSDP=4.23D-05 MaxDP=2.03D-04 DE=-1.19D-04 OVMax= 2.63D-04

 Cycle   5  Pass 0  IDiag  1:
 E= -76.3955667611764     Delta-E=       -0.000001860498 Rises=F Damp=F
 DIIS: error= 4.81D-05 at cycle   5 NSaved=   5.
 NSaved= 5 IEnMin= 5 EnMin= -76.3955667611764     IErMin= 5 ErrMin= 4.81D-05
 ErrMax= 4.81D-05  0.00D+00 EMaxC= 1.00D-01 BMatC= 3.18D-08 BMatP= 2.65D-06
 IDIUse=1 WtCom= 1.00D+00 WtEn= 0.00D+00
 Coeff-Com:  0.452D-03-0.329D-03 0.167D-03-0.510D-02 0.100D+01
 Coeff:      0.452D-03-0.329D-03 0.167D-03-0.510D-02 0.100D+01
 Gap=     0.346 Goal=   None    Shift=    0.000
 RMSDP=7.04D-06 MaxDP=5.50D-05 DE=-1.86D-06 OVMax= 4.56D-05

 Initial convergence to 1.0D-05 achieved.  Increase integral accuracy.
 Cycle   6  Pass 1  IDiag  1:
 E= -76.3955661959410     Delta-E=        0.000000565235 Rises=F Damp=F
 DIIS: error= 2.30D-06 at cycle   1 NSaved=   1.
 NSaved= 1 IEnMin= 1 EnMin= -76.3955661959410     IErMin= 1 ErrMin= 2.30D-06
 ErrMax= 2.30D-06  0.00D+00 EMaxC= 1.00D-01 BMatC= 7.87D-11 BMatP= 7.87D-11
 IDIUse=1 WtCom= 1.00D+00 WtEn= 0.00D+00
 Coeff-Com:  0.100D+01
 Coeff:      0.100D+01
 Gap=     0.346 Goal=   None    Shift=    0.000
 RMSDP=7.04D-06 MaxDP=5.50D-05 DE= 5.65D-07 OVMax= 4.80D-06

 Cycle   7  Pass 1  IDiag  1:
 E= -76.3955661959985     Delta-E=       -0.000000000058 Rises=F Damp=F
 DIIS: error= 1.10D-06 at cycle   2 NSaved=   2.
 NSaved= 2 IEnMin= 2 EnMin= -76.3955661959985     IErMin= 2 ErrMin= 1.10D-06
 ErrMax= 1.10D-06  0.00D+00 EMaxC= 1.00D-01 BMatC= 1.75D-11 BMatP= 7.87D-11
 IDIUse=1 WtCom= 1.00D+00 WtEn= 0.00D+00
 Coeff-Com:  0.319D+00 0.681D+00
 Coeff:      0.319D+00 0.681D+00
 Gap=     0.346 Goal=   None    Shift=    0.000
 RMSDP=1.77D-07 MaxDP=7.14D-07 DE=-5.75D-11 OVMax= 1.42D-06

 Cycle   8  Pass 1  IDiag  1:
 E= -76.3955661960139     Delta-E=       -0.000000000015 Rises=F Damp=F
 DIIS: error= 1.16D-08 at cycle   3 NSaved=   3.
 NSaved= 3 IEnMin= 3 EnMin= -76.3955661960139     IErMin= 3 ErrMin= 1.16D-08
 ErrMax= 1.16D-08  0.00D+00 EMaxC= 1.00D-01 BMatC= 3.53D-15 BMatP= 1.75D-11
 IDIUse=1 WtCom= 1.00D+00 WtEn= 0.00D+00
 Coeff-Com: -0.203D-01-0.381D-01 0.106D+01
 Coeff:     -0.203D-01-0.381D-01 0.106D+01
 Gap=     0.346 Goal=   None    Shift=    0.000
 RMSDP=4.71D-09 MaxDP=3.00D-08 DE=-1.54D-11 OVMax= 3.82D-08

 SCF Done:  E(RB3LYP) =  -76.3955661960     A.U. after    8 cycles
            NFock=  8  Conv=0.47D-08     -V/T= 2.0075
 KE= 7.582734344554D+01 PE=-1.989591166147D+02 EE= 3.756868473349D+01
 Leave Link  502 at Wed Feb  8 14:50:39 2023, MaxMem=   754974720 cpu:               1.2 elap:               0.4
 (Enter /opt/cluster/programs/g16-c.01/g16/l601.exe)
 Copying SCF densities to generalized density rwf, IOpCl= 0 IROHF=0.

 **********************************************************************

            Population analysis using the SCF Density.

 **********************************************************************

 Orbital symmetries:
       Occupied  (A') (A') (A') (A') (A")
       Virtual   (A') (A') (A') (A') (A") (A') (A') (A') (A") (A')
                 (A") (A') (A') (A')
 The electronic state is 1-A'.
 Alpha  occ. eigenvalues --  -19.12500  -0.98850  -0.54822  -0.33526  -0.28519
 Alpha virt. eigenvalues --    0.06041   0.15792   0.76799   0.88304   0.89577
 Alpha virt. eigenvalues --    0.89908   1.09273   1.15413   1.73025   1.78083
 Alpha virt. eigenvalues --    1.80047   2.32892   2.56635   3.58765
          Condensed to atoms (all electrons):
               1          2          3
     1  O    8.305006   0.257824   0.247124
     2  H    0.257824   0.351333  -0.017290
     3  H    0.247124  -0.017290   0.368345
 Mulliken charges:
               1
     1  O   -0.809953
     2  H    0.408133
     3  H    0.401821
 Sum of Mulliken charges =   0.00000
 Mulliken charges with hydrogens summed into heavy atoms:
               1
     1  O    0.000000
 Electronic spatial extent (au):  <R**2>=             18.9852
 Charge=              0.0000 electrons
 Dipole moment (field-independent basis, Debye):
    X=              0.0737    Y=             -1.7695    Z=              0.0000  Tot=              1.7710
 Quadrupole moment (field-independent basis, Debye-Ang):
   XX=             -3.5270   YY=             -6.3834   ZZ=             -7.1796
   XY=              0.3911   XZ=              0.0000   YZ=              0.0000
 Traceless Quadrupole moment (field-independent basis, Debye-Ang):
   XX=              2.1697   YY=             -0.6867   ZZ=             -1.4829
   XY=              0.3911   XZ=              0.0000   YZ=              0.0000
 Octapole moment (field-independent basis, Debye-Ang**2):
  XXX=              0.1576  YYY=             -0.9550  ZZZ=              0.0000  XYY=             -0.1726
  XXY=             -1.1766  XXZ=              0.0000  XZZ=              0.0688  YZZ=             -0.2712
  YYZ=              0.0000  XYZ=              0.0000
 Hexadecapole moment (field-independent basis, Debye-Ang**3):
 XXXX=             -5.3183 YYYY=             -5.9074 ZZZZ=             -5.1903 XXXY=              0.0512
 XXXZ=              0.0000 YYYX=             -0.0660 YYYZ=              0.0000 ZZZX=              0.0000
 ZZZY=              0.0000 XXYY=             -1.7829 XXZZ=             -2.1271 YYZZ=             -1.8752
 XXYZ=              0.0000 YYXZ=              0.0000 ZZXY=             -0.0794
 N-N= 9.167522239676D+00 E-N=-1.989591166212D+02  KE= 7.582734344554D+01
 Symmetry A'   KE= 7.125098275866D+01
 Symmetry A"   KE= 4.576360686882D+00
 No NMR shielding tensors so no spin-rotation constants.
 Leave Link  601 at Wed Feb  8 14:50:40 2023, MaxMem=   754974720 cpu:               1.1 elap:               0.5
 (Enter /opt/cluster/programs/g16-c.01/g16/l9999.exe)
 Unable to Open any file for archive entry.
 1\1\GINC-NODE63\SP\RB3LYP\6-31G(d)\H2O1\BOITTIER\08-Feb-2023\0\\#P B3L
 YP/6-31g* scf(maxcycle=200)\\Gaussian input\\0,1\O,0,0.,0.11751,0.\H,0
 ,0.7183372325,-0.4395112028,0.\H,0,-0.9495937521,-0.2235951244,0.\\Ver
 sion=ES64L-G16RevC.01\State=1-A'\HF=-76.3955662\RMSD=4.712e-09\Dipole=
 -0.1454953,-0.6814015,0.\Quadrupole=1.6214785,-0.5189525,-1.1025259,-0
 .2582191,0.,0.\PG=CS [SG(H2O1)]\\@
 The archive entry for this job was punched.


 ... UNTIL SCIENCE IS MIXED WITH EMOTION AND APPEALS TO THE HEART AND
 IMAGINATION , IT IS LIKE DEAD INORGANIC MATTER; AND WHEN IT IS SO MIXED
 AND SO TRANSFORMED IT IS LITERATURE.

                                  -- JOHN BURROUGHS
 Job cpu time:       0 days  0 hours  0 minutes  6.0 seconds.
 Elapsed time:       0 days  0 hours  0 minutes  2.2 seconds.
 File lengths (MBytes):  RWF=      6 Int=      0 D2E=      0 Chk=      1 Scr=      1
 Normal termination of Gaussian 16 at Wed Feb  8 14:50:40 2023.
