 Entering Gaussian System, Link 0=/opt/cluster/programs/g16-c.01/g16/g16
 Input=/scratch/boittier/jobs/tmp.7262032/gaussian_90_water_wb97_ptz.com
 Output=/scratch/boittier/jobs/tmp.7262032/gaussian_90_water_wb97_ptz.out
 Initial command:
 /opt/cluster/programs/g16-c.01/g16/l1.exe "/scratch/boittier/jobs/tmp.7262032/Gau-51410.inp" -scrdir="/scratch/boittier/jobs/tmp.7262032/"
 Entering Link 1 = /opt/cluster/programs/g16-c.01/g16/l1.exe PID=     51411.
  
 Copyright (c) 1988-2019, Gaussian, Inc.  All Rights Reserved.
  
 This is part of the Gaussian(R) 16 program.  It is based on
 the Gaussian(R) 09 system (copyright 2009, Gaussian, Inc.),
 the Gaussian(R) 03 system (copyright 2003, Gaussian, Inc.),
 the Gaussian(R) 98 system (copyright 1998, Gaussian, Inc.),
 the Gaussian(R) 94 system (copyright 1995, Gaussian, Inc.),
 the Gaussian 92(TM) system (copyright 1992, Gaussian, Inc.),
 the Gaussian 90(TM) system (copyright 1990, Gaussian, Inc.),
 the Gaussian 88(TM) system (copyright 1988, Gaussian, Inc.),
 the Gaussian 86(TM) system (copyright 1986, Carnegie Mellon
 University), and the Gaussian 82(TM) system (copyright 1983,
 Carnegie Mellon University). Gaussian is a federally registered
 trademark of Gaussian, Inc.
  
 This software contains proprietary and confidential information,
 including trade secrets, belonging to Gaussian, Inc.
  
 This software is provided under written license and may be
 used, copied, transmitted, or stored only in accord with that
 written license.
  
 The following legend is applicable only to US Government
 contracts under FAR:
  
                    RESTRICTED RIGHTS LEGEND
  
 Use, reproduction and disclosure by the US Government is
 subject to restrictions as set forth in subparagraphs (a)
 and (c) of the Commercial Computer Software - Restricted
 Rights clause in FAR 52.227-19.
  
 Gaussian, Inc.
 340 Quinnipiac St., Bldg. 40, Wallingford CT 06492
  
  
 ---------------------------------------------------------------
 Warning -- This program may not be used in any manner that
 competes with the business of Gaussian, Inc. or will provide
 assistance to any competitor of Gaussian, Inc.  The licensee
 of this program is prohibited from giving any competitor of
 Gaussian, Inc. access to this program.  By using this program,
 the user acknowledges that Gaussian, Inc. is engaged in the
 business of creating and licensing software in the field of
 computational chemistry and represents and warrants to the
 licensee that it is not a competitor of Gaussian, Inc. and that
 it will not use this program in any manner prohibited above.
 ---------------------------------------------------------------
  

 Cite this work as:
 Gaussian 16, Revision C.01,
 M. J. Frisch, G. W. Trucks, H. B. Schlegel, G. E. Scuseria, 
 M. A. Robb, J. R. Cheeseman, G. Scalmani, V. Barone, 
 G. A. Petersson, H. Nakatsuji, X. Li, M. Caricato, A. V. Marenich, 
 J. Bloino, B. G. Janesko, R. Gomperts, B. Mennucci, H. P. Hratchian, 
 J. V. Ortiz, A. F. Izmaylov, J. L. Sonnenberg, D. Williams-Young, 
 F. Ding, F. Lipparini, F. Egidi, J. Goings, B. Peng, A. Petrone, 
 T. Henderson, D. Ranasinghe, V. G. Zakrzewski, J. Gao, N. Rega, 
 G. Zheng, W. Liang, M. Hada, M. Ehara, K. Toyota, R. Fukuda, 
 J. Hasegawa, M. Ishida, T. Nakajima, Y. Honda, O. Kitao, H. Nakai, 
 T. Vreven, K. Throssell, J. A. Montgomery, Jr., J. E. Peralta, 
 F. Ogliaro, M. J. Bearpark, J. J. Heyd, E. N. Brothers, K. N. Kudin, 
 V. N. Staroverov, T. A. Keith, R. Kobayashi, J. Normand, 
 K. Raghavachari, A. P. Rendell, J. C. Burant, S. S. Iyengar, 
 J. Tomasi, M. Cossi, J. M. Millam, M. Klene, C. Adamo, R. Cammi, 
 J. W. Ochterski, R. L. Martin, K. Morokuma, O. Farkas, 
 J. B. Foresman, and D. J. Fox, Gaussian, Inc., Wallingford CT, 2019.
 
 ******************************************
 Gaussian 16:  ES64L-G16RevC.01  3-Jul-2019
                 8-Feb-2023 
 ******************************************
 %nproc=4
 Will use up to    4 processors via shared memory.
 %mem=5760MB
 %chk=gaussian_90_water_wb97_ptz.chk
 ------------------------------------
 #P wB97XD/6-311g** scf(maxcycle=200)
 ------------------------------------
 1/38=1,172=1/1;
 2/12=2,17=6,18=5,40=1/2;
 3/5=4,6=6,7=101,11=2,25=1,30=1,74=-58/1,2,3;
 4//1;
 5/5=2,7=200,38=5/2;
 6/7=2,8=2,9=2,10=2,28=1/1;
 99/5=1,9=1/99;
 Leave Link    1 at Wed Feb  8 14:41:25 2023, MaxMem=   754974720 cpu:               0.1 elap:               0.0
 (Enter /opt/cluster/programs/g16-c.01/g16/l101.exe)
 --------------
 Gaussian input
 --------------
 Symbolic Z-matrix:
 Charge =  0 Multiplicity = 1
 O                     0.        0.11751   0. 
 H                     0.75785  -0.47015   0. 
 H                    -0.75818  -0.46972   0. 
 
 ITRead=  0  0  0
 MicOpt= -1 -1 -1
 NAtoms=      3 NQM=        3 NQMF=       0 NMMI=      0 NMMIF=      0
                NMic=       0 NMicF=      0.
                    Isotopes and Nuclear Properties:
 (Nuclear quadrupole moments (NQMom) in fm**2, nuclear magnetic moments (NMagM)
  in nuclear magnetons)

  Atom         1           2           3
 IAtWgt=          16           1           1
 AtmWgt=  15.9949146   1.0078250   1.0078250
 NucSpn=           0           1           1
 AtZEff=  -0.0000000  -0.0000000  -0.0000000
 NQMom=    0.0000000   0.0000000   0.0000000
 NMagM=    0.0000000   2.7928460   2.7928460
 AtZNuc=   8.0000000   1.0000000   1.0000000
 Leave Link  101 at Wed Feb  8 14:41:25 2023, MaxMem=   754974720 cpu:               0.4 elap:               0.2
 (Enter /opt/cluster/programs/g16-c.01/g16/l202.exe)
                          Input orientation:                          
 ---------------------------------------------------------------------
 Center     Atomic      Atomic             Coordinates (Angstroms)
 Number     Number       Type             X           Y           Z
 ---------------------------------------------------------------------
      1          8           0        0.000000    0.117510    0.000000
      2          1           0        0.757850   -0.470150    0.000000
      3          1           0       -0.758180   -0.469724    0.000000
 ---------------------------------------------------------------------
                    Distance matrix (angstroms):
                    1          2          3
     1  O    0.000000
     2  H    0.959000   0.000000
     3  H    0.959000   1.516030   0.000000
 Stoichiometry    H2O
 Framework group  C2V[C2(O),SGV(H2)]
 Deg. of freedom     2
 Full point group                 C2V     NOp   4
 Largest Abelian subgroup         C2V     NOp   4
 Largest concise Abelian subgroup C2      NOp   2
                         Standard orientation:                         
 ---------------------------------------------------------------------
 Center     Atomic      Atomic             Coordinates (Angstroms)
 Number     Number       Type             X           Y           Z
 ---------------------------------------------------------------------
      1          8           0        0.000000    0.000000    0.117489
      2          1           0        0.000000    0.758015   -0.469958
      3          1           0       -0.000000   -0.758015   -0.469958
 ---------------------------------------------------------------------
 Rotational constants (GHZ):         818.1064686         436.3614765         284.5749451
 Leave Link  202 at Wed Feb  8 14:41:25 2023, MaxMem=   754974720 cpu:               0.4 elap:               0.2
 (Enter /opt/cluster/programs/g16-c.01/g16/l301.exe)
 Standard basis: 6-311G(d,p) (5D, 7F)
 Ernie: Thresh=  0.10000D-02 Tol=  0.10000D-05 Strict=F.
 There are    15 symmetry adapted cartesian basis functions of A1  symmetry.
 There are     2 symmetry adapted cartesian basis functions of A2  symmetry.
 There are     5 symmetry adapted cartesian basis functions of B1  symmetry.
 There are     9 symmetry adapted cartesian basis functions of B2  symmetry.
 There are    14 symmetry adapted basis functions of A1  symmetry.
 There are     2 symmetry adapted basis functions of A2  symmetry.
 There are     5 symmetry adapted basis functions of B1  symmetry.
 There are     9 symmetry adapted basis functions of B2  symmetry.
    30 basis functions,    48 primitive gaussians,    31 cartesian basis functions
     5 alpha electrons        5 beta electrons
       nuclear repulsion energy         9.1778714200 Hartrees.
 IExCor= 4639 DFT=T Ex+Corr=wB97XD ExCW=0 ScaHFX=  1.000000
 ScaDFX=  1.000000  1.000000  1.000000  1.000000 ScalE2=  1.000000  1.000000
 IRadAn=      5 IRanWt=     -1 IRanGd=            0 ICorTp=0 IEmpDi=121
 HFx  wShort=  0.000000 wLong=  0.200000 cFull=  0.222036 cShort=  0.000000 cLong=  0.777964
 DFx  wShort=  0.000000 wLong=  0.200000 cFull=  0.000000 cShort=  0.000000 cLong=  1.000000
 NAtoms=    3 NActive=    3 NUniq=    2 SFac= 2.25D+00 NAtFMM=   60 NAOKFM=F Big=F
 Integral buffers will be    131072 words long.
 Raffenetti 2 integral format.
 Two-electron integral symmetry is turned on.
 R6Disp:  Grimme-D2 Dispersion energy=       -0.0000270044 Hartrees.
 Nuclear repulsion after empirical dispersion term =        9.1778444156 Hartrees.
 Leave Link  301 at Wed Feb  8 14:41:25 2023, MaxMem=   754974720 cpu:               0.1 elap:               0.0
 (Enter /opt/cluster/programs/g16-c.01/g16/l302.exe)
 NPDir=0 NMtPBC=     1 NCelOv=     1 NCel=       1 NClECP=     1 NCelD=      1
         NCelK=      1 NCelE2=     1 NClLst=     1 CellRange=     0.0.
 One-electron integrals computed using PRISM.
 One-electron integral symmetry used in STVInt
 NBasis=    30 RedAO= T EigKep=  1.80D-02  NBF=    14     2     5     9
 NBsUse=    30 1.00D-06 EigRej= -1.00D+00 NBFU=    14     2     5     9
 Precomputing XC quadrature grid using
 IXCGrd= 4 IRadAn=           5 IRanWt=          -1 IRanGd=           0 AccXCQ= 0.00D+00.
 Generated NRdTot=       0 NPtTot=           0 NUsed=           0 NTot=          32
 NSgBfM=    31    31    31    31    31 MxSgAt=     3 MxSgA2=     3.
 Leave Link  302 at Wed Feb  8 14:41:26 2023, MaxMem=   754974720 cpu:               1.0 elap:               0.5
 (Enter /opt/cluster/programs/g16-c.01/g16/l303.exe)
 DipDrv:  MaxL=1.
 Leave Link  303 at Wed Feb  8 14:41:26 2023, MaxMem=   754974720 cpu:               0.5 elap:               0.3
 (Enter /opt/cluster/programs/g16-c.01/g16/l401.exe)
 ExpMin= 1.03D-01 ExpMax= 8.59D+03 ExpMxC= 1.30D+03 IAcc=3 IRadAn=         5 AccDes= 0.00D+00
 Harris functional with IExCor= 4639 and IRadAn=       5 diagonalized for initial guess.
 HarFok:  IExCor= 4639 AccDes= 0.00D+00 IRadAn=         5 IDoV= 1 UseB2=F ITyADJ=14
 ICtDFT=  3500011 ScaDFX=  1.000000  1.000000  1.000000  1.000000
 FoFCou: FMM=F IPFlag=           0 FMFlag=      100000 FMFlg1=           0
         NFxFlg=           0 DoJE=T BraDBF=F KetDBF=T FulRan=T
         wScrn=  0.000000 ICntrl=       500 IOpCl=  0 I1Cent=   200000004 NGrid=           0
         NMat0=    1 NMatS0=      1 NMatT0=    0 NMatD0=    1 NMtDS0=    0 NMtDT0=    0
 Petite list used in FoFCou.
 Harris En= -73.6127367553572    
 JPrj=0 DoOrth=F DoCkMO=F.
 Initial guess orbital symmetries:
       Occupied  (A1) (A1) (B2) (A1) (B1)
       Virtual   (A1) (B2) (B2) (A1) (A1) (B1) (B2) (A1) (A1) (A2)
                 (B1) (B2) (B2) (A1) (A1) (B2) (B1) (A2) (A1) (A1)
                 (B2) (B1) (A1) (B2) (A1)
 The electronic state of the initial guess is 1-A1.
 Leave Link  401 at Wed Feb  8 14:41:26 2023, MaxMem=   754974720 cpu:               0.8 elap:               0.2
 (Enter /opt/cluster/programs/g16-c.01/g16/l502.exe)
 Keep R1 ints in memory in symmetry-blocked form, NReq=3688799.
 FoFCou: FMM=F IPFlag=           0 FMFlag=           0 FMFlg1=           0
         NFxFlg=           0 DoJE=F BraDBF=F KetDBF=F FulRan=T
         wScrn=  0.000000 ICntrl=       600 IOpCl=  0 I1Cent=           0 NGrid=           0
         NMat0=    1 NMatS0=    465 NMatT0=    0 NMatD0=    1 NMtDS0=    0 NMtDT0=    0
 Petite list used in FoFCou.
 Closed shell SCF:
 Using DIIS extrapolation, IDIIS=  1040.
 NGot=   754974720 LenX=   754939916 LenY=   754938514
 Requested convergence on RMS density matrix=1.00D-08 within 200 cycles.
 Requested convergence on MAX density matrix=1.00D-06.
 Requested convergence on             energy=1.00D-06.
 No special actions if energy rises.
 Integral accuracy reduced to 1.0D-05 until final iterations.

 Cycle   1  Pass 0  IDiag  1:
 E= -76.4133093909282    
 DIIS: error= 8.14D-02 at cycle   1 NSaved=   1.
 NSaved= 1 IEnMin= 1 EnMin= -76.4133093909282     IErMin= 1 ErrMin= 8.14D-02
 ErrMax= 8.14D-02  0.00D+00 EMaxC= 1.00D-01 BMatC= 1.29D-01 BMatP= 1.29D-01
 IDIUse=3 WtCom= 1.86D-01 WtEn= 8.14D-01
 Coeff-Com:  0.100D+01
 Coeff-En:   0.100D+01
 Coeff:      0.100D+01
 Gap=     0.494 Goal=   None    Shift=    0.000
 GapD=    0.494 DampG=2.000 DampE=0.500 DampFc=1.0000 IDamp=-1.
 RMSDP=2.55D-03 MaxDP=1.97D-02              OVMax= 3.54D-02

 Cycle   2  Pass 0  IDiag  1:
 E= -76.4230028632448     Delta-E=       -0.009693472317 Rises=F Damp=F
 DIIS: error= 5.65D-03 at cycle   2 NSaved=   2.
 NSaved= 2 IEnMin= 2 EnMin= -76.4230028632448     IErMin= 2 ErrMin= 5.65D-03
 ErrMax= 5.65D-03  0.00D+00 EMaxC= 1.00D-01 BMatC= 6.63D-04 BMatP= 1.29D-01
 IDIUse=3 WtCom= 9.44D-01 WtEn= 5.65D-02
 Coeff-Com:  0.421D-01 0.958D+00
 Coeff-En:   0.000D+00 0.100D+01
 Coeff:      0.397D-01 0.960D+00
 Gap=     0.511 Goal=   None    Shift=    0.000
 RMSDP=5.72D-04 MaxDP=7.07D-03 DE=-9.69D-03 OVMax= 6.90D-03

 Cycle   3  Pass 0  IDiag  1:
 E= -76.4231950625619     Delta-E=       -0.000192199317 Rises=F Damp=F
 DIIS: error= 3.39D-03 at cycle   3 NSaved=   3.
 NSaved= 3 IEnMin= 3 EnMin= -76.4231950625619     IErMin= 3 ErrMin= 3.39D-03
 ErrMax= 3.39D-03  0.00D+00 EMaxC= 1.00D-01 BMatC= 2.28D-04 BMatP= 6.63D-04
 IDIUse=3 WtCom= 9.66D-01 WtEn= 3.39D-02
 Coeff-Com:  0.186D-01 0.397D+00 0.584D+00
 Coeff-En:   0.000D+00 0.193D+00 0.807D+00
 Coeff:      0.179D-01 0.390D+00 0.592D+00
 Gap=     0.504 Goal=   None    Shift=    0.000
 RMSDP=2.75D-04 MaxDP=3.45D-03 DE=-1.92D-04 OVMax= 3.86D-03

 Cycle   4  Pass 0  IDiag  1:
 E= -76.4233279584720     Delta-E=       -0.000132895910 Rises=F Damp=F
 DIIS: error= 7.71D-04 at cycle   4 NSaved=   4.
 NSaved= 4 IEnMin= 4 EnMin= -76.4233279584720     IErMin= 4 ErrMin= 7.71D-04
 ErrMax= 7.71D-04  0.00D+00 EMaxC= 1.00D-01 BMatC= 1.24D-05 BMatP= 2.28D-04
 IDIUse=3 WtCom= 9.92D-01 WtEn= 7.71D-03
 Coeff-Com:  0.182D-02 0.528D-01 0.210D+00 0.735D+00
 Coeff-En:   0.000D+00 0.000D+00 0.000D+00 0.100D+01
 Coeff:      0.181D-02 0.524D-01 0.209D+00 0.737D+00
 Gap=     0.505 Goal=   None    Shift=    0.000
 RMSDP=5.83D-05 MaxDP=8.42D-04 DE=-1.33D-04 OVMax= 7.03D-04

 Cycle   5  Pass 0  IDiag  1:
 E= -76.4233355608514     Delta-E=       -0.000007602379 Rises=F Damp=F
 DIIS: error= 5.86D-05 at cycle   5 NSaved=   5.
 NSaved= 5 IEnMin= 5 EnMin= -76.4233355608514     IErMin= 5 ErrMin= 5.86D-05
 ErrMax= 5.86D-05  0.00D+00 EMaxC= 1.00D-01 BMatC= 8.01D-08 BMatP= 1.24D-05
 IDIUse=1 WtCom= 1.00D+00 WtEn= 0.00D+00
 Coeff-Com: -0.736D-03-0.192D-01-0.296D-01-0.231D-01 0.107D+01
 Coeff:     -0.736D-03-0.192D-01-0.296D-01-0.231D-01 0.107D+01
 Gap=     0.505 Goal=   None    Shift=    0.000
 RMSDP=1.73D-05 MaxDP=1.78D-04 DE=-7.60D-06 OVMax= 2.88D-04

 Cycle   6  Pass 0  IDiag  1:
 E= -76.4233357135454     Delta-E=       -0.000000152694 Rises=F Damp=F
 DIIS: error= 1.15D-05 at cycle   6 NSaved=   6.
 NSaved= 6 IEnMin= 6 EnMin= -76.4233357135454     IErMin= 6 ErrMin= 1.15D-05
 ErrMax= 1.15D-05  0.00D+00 EMaxC= 1.00D-01 BMatC= 3.15D-09 BMatP= 8.01D-08
 IDIUse=1 WtCom= 1.00D+00 WtEn= 0.00D+00
 Coeff-Com:  0.141D-03 0.326D-02 0.530D-02-0.111D-01-0.232D+00 0.123D+01
 Coeff:      0.141D-03 0.326D-02 0.530D-02-0.111D-01-0.232D+00 0.123D+01
 Gap=     0.505 Goal=   None    Shift=    0.000
 RMSDP=4.22D-06 MaxDP=5.00D-05 DE=-1.53D-07 OVMax= 7.06D-05

 Initial convergence to 1.0D-05 achieved.  Increase integral accuracy.
 Cycle   7  Pass 1  IDiag  1:
 E= -76.4233434663714     Delta-E=       -0.000007752826 Rises=F Damp=F
 DIIS: error= 1.46D-05 at cycle   1 NSaved=   1.
 NSaved= 1 IEnMin= 1 EnMin= -76.4233434663714     IErMin= 1 ErrMin= 1.46D-05
 ErrMax= 1.46D-05  0.00D+00 EMaxC= 1.00D-01 BMatC= 5.65D-09 BMatP= 5.65D-09
 IDIUse=1 WtCom= 1.00D+00 WtEn= 0.00D+00
 Coeff-Com:  0.100D+01
 Coeff:      0.100D+01
 Gap=     0.505 Goal=   None    Shift=    0.000
 RMSDP=4.22D-06 MaxDP=5.00D-05 DE=-7.75D-06 OVMax= 1.98D-05

 Cycle   8  Pass 1  IDiag  1:
 E= -76.4233434705998     Delta-E=       -0.000000004228 Rises=F Damp=F
 DIIS: error= 2.89D-06 at cycle   2 NSaved=   2.
 NSaved= 2 IEnMin= 2 EnMin= -76.4233434705998     IErMin= 2 ErrMin= 2.89D-06
 ErrMax= 2.89D-06  0.00D+00 EMaxC= 1.00D-01 BMatC= 1.83D-10 BMatP= 5.65D-09
 IDIUse=1 WtCom= 1.00D+00 WtEn= 0.00D+00
 Coeff-Com: -0.365D-01 0.104D+01
 Coeff:     -0.365D-01 0.104D+01
 Gap=     0.505 Goal=   None    Shift=    0.000
 RMSDP=4.82D-07 MaxDP=4.57D-06 DE=-4.23D-09 OVMax= 6.25D-06

 Cycle   9  Pass 1  IDiag  1:
 E= -76.4233434706411     Delta-E=       -0.000000000041 Rises=F Damp=F
 DIIS: error= 2.67D-06 at cycle   3 NSaved=   3.
 NSaved= 3 IEnMin= 3 EnMin= -76.4233434706411     IErMin= 3 ErrMin= 2.67D-06
 ErrMax= 2.67D-06  0.00D+00 EMaxC= 1.00D-01 BMatC= 1.64D-10 BMatP= 1.83D-10
 IDIUse=1 WtCom= 1.00D+00 WtEn= 0.00D+00
 Coeff-Com: -0.444D-01 0.523D+00 0.521D+00
 Coeff:     -0.444D-01 0.523D+00 0.521D+00
 Gap=     0.505 Goal=   None    Shift=    0.000
 RMSDP=2.01D-07 MaxDP=2.66D-06 DE=-4.13D-11 OVMax= 2.79D-06

 Cycle  10  Pass 1  IDiag  1:
 E= -76.4233434707422     Delta-E=       -0.000000000101 Rises=F Damp=F
 DIIS: error= 1.53D-07 at cycle   4 NSaved=   4.
 NSaved= 4 IEnMin= 4 EnMin= -76.4233434707422     IErMin= 4 ErrMin= 1.53D-07
 ErrMax= 1.53D-07  0.00D+00 EMaxC= 1.00D-01 BMatC= 5.59D-13 BMatP= 1.64D-10
 IDIUse=1 WtCom= 1.00D+00 WtEn= 0.00D+00
 Coeff-Com: -0.470D-02 0.249D-01 0.491D-01 0.931D+00
 Coeff:     -0.470D-02 0.249D-01 0.491D-01 0.931D+00
 Gap=     0.505 Goal=   None    Shift=    0.000
 RMSDP=3.18D-08 MaxDP=3.71D-07 DE=-1.01D-10 OVMax= 5.08D-07

 Cycle  11  Pass 1  IDiag  1:
 E= -76.4233434707429     Delta-E=       -0.000000000001 Rises=F Damp=F
 DIIS: error= 3.11D-08 at cycle   5 NSaved=   5.
 NSaved= 5 IEnMin= 5 EnMin= -76.4233434707429     IErMin= 5 ErrMin= 3.11D-08
 ErrMax= 3.11D-08  0.00D+00 EMaxC= 1.00D-01 BMatC= 2.69D-14 BMatP= 5.59D-13
 IDIUse=1 WtCom= 1.00D+00 WtEn= 0.00D+00
 Coeff-Com:  0.138D-02-0.175D-01-0.137D-01-0.523D-02 0.104D+01
 Coeff:      0.138D-02-0.175D-01-0.137D-01-0.523D-02 0.104D+01
 Gap=     0.505 Goal=   None    Shift=    0.000
 RMSDP=1.22D-08 MaxDP=1.39D-07 DE=-7.11D-13 OVMax= 2.39D-07

 Cycle  12  Pass 1  IDiag  1:
 E= -76.4233434707430     Delta-E=       -0.000000000000 Rises=F Damp=F
 DIIS: error= 1.20D-08 at cycle   6 NSaved=   6.
 NSaved= 6 IEnMin= 6 EnMin= -76.4233434707430     IErMin= 6 ErrMin= 1.20D-08
 ErrMax= 1.20D-08  0.00D+00 EMaxC= 1.00D-01 BMatC= 2.70D-15 BMatP= 2.69D-14
 IDIUse=1 WtCom= 1.00D+00 WtEn= 0.00D+00
 Coeff-Com:  0.159D-03 0.446D-03 0.127D-02-0.531D-01-0.191D+00 0.124D+01
 Coeff:      0.159D-03 0.446D-03 0.127D-02-0.531D-01-0.191D+00 0.124D+01
 Gap=     0.505 Goal=   None    Shift=    0.000
 RMSDP=4.44D-09 MaxDP=4.60D-08 DE=-1.14D-13 OVMax= 8.73D-08

 SCF Done:  E(RwB97XD) =  -76.4233434707     A.U. after   12 cycles
            NFock= 12  Conv=0.44D-08     -V/T= 2.0017
 KE= 7.629653301277D+01 PE=-1.995058734722D+02 EE= 3.760815257308D+01
 Leave Link  502 at Wed Feb  8 14:41:33 2023, MaxMem=   754974720 cpu:              12.3 elap:               6.2
 (Enter /opt/cluster/programs/g16-c.01/g16/l601.exe)
 Copying SCF densities to generalized density rwf, IOpCl= 0 IROHF=0.

 **********************************************************************

            Population analysis using the SCF Density.

 **********************************************************************

 Orbital symmetries:
       Occupied  (A1) (A1) (B2) (A1) (B1)
       Virtual   (A1) (B2) (B2) (A1) (A1) (B1) (B2) (A1) (A1) (A2)
                 (B1) (B2) (B2) (A1) (A1) (B2) (B1) (A2) (A1) (A1)
                 (B2) (B1) (A1) (B2) (A1)
 The electronic state is 1-A1.
 Alpha  occ. eigenvalues --  -19.22597  -1.10277  -0.61010  -0.46277  -0.38635
 Alpha virt. eigenvalues --    0.11906   0.19231   0.46557   0.50868   0.85145
 Alpha virt. eigenvalues --    0.85512   0.95200   1.15496   1.33412   1.35057
 Alpha virt. eigenvalues --    1.54809   1.74468   2.01992   2.14866   2.38293
 Alpha virt. eigenvalues --    2.56942   3.20130   3.24884   3.41141   3.68936
 Alpha virt. eigenvalues --    3.92234   4.88215   5.29881   5.72979  49.98642
          Condensed to atoms (all electrons):
               1          2          3
     1  O    7.850537   0.318306   0.318306
     2  H    0.318306   0.469845  -0.031725
     3  H    0.318306  -0.031725   0.469845
 Mulliken charges:
               1
     1  O   -0.487149
     2  H    0.243574
     3  H    0.243574
 Sum of Mulliken charges =   0.00000
 Mulliken charges with hydrogens summed into heavy atoms:
               1
     1  O    0.000000
 Electronic spatial extent (au):  <R**2>=             19.0275
 Charge=              0.0000 electrons
 Dipole moment (field-independent basis, Debye):
    X=             -0.0000    Y=              0.0000    Z=             -2.0966  Tot=              2.0966
 Quadrupole moment (field-independent basis, Debye-Ang):
   XX=             -7.1709   YY=             -4.2194   ZZ=             -6.0305
   XY=              0.0000   XZ=              0.0000   YZ=             -0.0000
 Traceless Quadrupole moment (field-independent basis, Debye-Ang):
   XX=             -1.3640   YY=              1.5876   ZZ=             -0.2236
   XY=              0.0000   XZ=              0.0000   YZ=             -0.0000
 Octapole moment (field-independent basis, Debye-Ang**2):
  XXX=              0.0000  YYY=              0.0000  ZZZ=             -1.2564  XYY=             -0.0000
  XXY=              0.0000  XXZ=             -0.3343  XZZ=              0.0000  YZZ=              0.0000
  YYZ=             -1.2695  XYZ=             -0.0000
 Hexadecapole moment (field-independent basis, Debye-Ang**3):
 XXXX=             -5.2417 YYYY=             -5.8261 ZZZZ=             -6.2500 XXXY=             -0.0000
 XXXZ=             -0.0000 YYYX=             -0.0000 YYYZ=             -0.0000 ZZZX=             -0.0000
 ZZZY=             -0.0000 XXYY=             -2.1268 XXZZ=             -1.9695 YYZZ=             -1.6809
 XXYZ=              0.0000 YYXZ=              0.0000 ZZXY=             -0.0000
 N-N= 9.177844415640D+00 E-N=-1.995058736068D+02  KE= 7.629653301277D+01
 Symmetry A1   KE= 6.803310968177D+01
 Symmetry A2   KE= 1.079443964831D-35
 Symmetry B1   KE= 4.636589129008D+00
 Symmetry B2   KE= 3.626834201991D+00
 No NMR shielding tensors so no spin-rotation constants.
 Leave Link  601 at Wed Feb  8 14:41:34 2023, MaxMem=   754974720 cpu:               1.7 elap:               0.9
 (Enter /opt/cluster/programs/g16-c.01/g16/l9999.exe)
 Unable to Open any file for archive entry.
 1\1\GINC-NODE63\SP\RwB97XD\6-311G(d,p)\H2O1\BOITTIER\08-Feb-2023\0\\#P
  wB97XD/6-311g** scf(maxcycle=200)\\Gaussian input\\0,1\O,0,0.,0.11751
 ,0.\H,0,0.7578497316,-0.4701504329,0.\H,0,-0.7581803108,-0.4697238685,
 0.\\Version=ES64L-G16RevC.01\State=1-A1\HF=-76.4233435\RMSD=4.440e-09\
 Dipole=-0.0002321,-0.8248659,0.\Quadrupole=1.1803104,-0.1662366,-1.014
 0738,-0.0003789,0.,0.\PG=C02V [C2(O1),SGV(H2)]\\@
 The archive entry for this job was punched.


 Make no judgements where you have no compassion.
                               -- Anne McCaffrey
 Job cpu time:       0 days  0 hours  0 minutes 17.6 seconds.
 Elapsed time:       0 days  0 hours  0 minutes  8.6 seconds.
 File lengths (MBytes):  RWF=      6 Int=      0 D2E=      0 Chk=      1 Scr=      1
 Normal termination of Gaussian 16 at Wed Feb  8 14:41:34 2023.
