 Entering Gaussian System, Link 0=/opt/cluster/programs/g16-c.01/g16/g16
 Input=/scratch/boittier/jobs/tmp.7261769/gaussian_98_water_ccsdt_atz.com
 Output=/scratch/boittier/jobs/tmp.7261769/gaussian_98_water_ccsdt_atz.out
 Initial command:
 /opt/cluster/programs/g16-c.01/g16/l1.exe "/scratch/boittier/jobs/tmp.7261769/Gau-107531.inp" -scrdir="/scratch/boittier/jobs/tmp.7261769/"
 Entering Link 1 = /opt/cluster/programs/g16-c.01/g16/l1.exe PID=    107532.
  
 Copyright (c) 1988-2019, Gaussian, Inc.  All Rights Reserved.
  
 This is part of the Gaussian(R) 16 program.  It is based on
 the Gaussian(R) 09 system (copyright 2009, Gaussian, Inc.),
 the Gaussian(R) 03 system (copyright 2003, Gaussian, Inc.),
 the Gaussian(R) 98 system (copyright 1998, Gaussian, Inc.),
 the Gaussian(R) 94 system (copyright 1995, Gaussian, Inc.),
 the Gaussian 92(TM) system (copyright 1992, Gaussian, Inc.),
 the Gaussian 90(TM) system (copyright 1990, Gaussian, Inc.),
 the Gaussian 88(TM) system (copyright 1988, Gaussian, Inc.),
 the Gaussian 86(TM) system (copyright 1986, Carnegie Mellon
 University), and the Gaussian 82(TM) system (copyright 1983,
 Carnegie Mellon University). Gaussian is a federally registered
 trademark of Gaussian, Inc.
  
 This software contains proprietary and confidential information,
 including trade secrets, belonging to Gaussian, Inc.
  
 This software is provided under written license and may be
 used, copied, transmitted, or stored only in accord with that
 written license.
  
 The following legend is applicable only to US Government
 contracts under FAR:
  
                    RESTRICTED RIGHTS LEGEND
  
 Use, reproduction and disclosure by the US Government is
 subject to restrictions as set forth in subparagraphs (a)
 and (c) of the Commercial Computer Software - Restricted
 Rights clause in FAR 52.227-19.
  
 Gaussian, Inc.
 340 Quinnipiac St., Bldg. 40, Wallingford CT 06492
  
  
 ---------------------------------------------------------------
 Warning -- This program may not be used in any manner that
 competes with the business of Gaussian, Inc. or will provide
 assistance to any competitor of Gaussian, Inc.  The licensee
 of this program is prohibited from giving any competitor of
 Gaussian, Inc. access to this program.  By using this program,
 the user acknowledges that Gaussian, Inc. is engaged in the
 business of creating and licensing software in the field of
 computational chemistry and represents and warrants to the
 licensee that it is not a competitor of Gaussian, Inc. and that
 it will not use this program in any manner prohibited above.
 ---------------------------------------------------------------
  

 Cite this work as:
 Gaussian 16, Revision C.01,
 M. J. Frisch, G. W. Trucks, H. B. Schlegel, G. E. Scuseria, 
 M. A. Robb, J. R. Cheeseman, G. Scalmani, V. Barone, 
 G. A. Petersson, H. Nakatsuji, X. Li, M. Caricato, A. V. Marenich, 
 J. Bloino, B. G. Janesko, R. Gomperts, B. Mennucci, H. P. Hratchian, 
 J. V. Ortiz, A. F. Izmaylov, J. L. Sonnenberg, D. Williams-Young, 
 F. Ding, F. Lipparini, F. Egidi, J. Goings, B. Peng, A. Petrone, 
 T. Henderson, D. Ranasinghe, V. G. Zakrzewski, J. Gao, N. Rega, 
 G. Zheng, W. Liang, M. Hada, M. Ehara, K. Toyota, R. Fukuda, 
 J. Hasegawa, M. Ishida, T. Nakajima, Y. Honda, O. Kitao, H. Nakai, 
 T. Vreven, K. Throssell, J. A. Montgomery, Jr., J. E. Peralta, 
 F. Ogliaro, M. J. Bearpark, J. J. Heyd, E. N. Brothers, K. N. Kudin, 
 V. N. Staroverov, T. A. Keith, R. Kobayashi, J. Normand, 
 K. Raghavachari, A. P. Rendell, J. C. Burant, S. S. Iyengar, 
 J. Tomasi, M. Cossi, J. M. Millam, M. Klene, C. Adamo, R. Cammi, 
 J. W. Ochterski, R. L. Martin, K. Morokuma, O. Farkas, 
 J. B. Foresman, and D. J. Fox, Gaussian, Inc., Wallingford CT, 2019.
 
 ******************************************
 Gaussian 16:  ES64L-G16RevC.01  3-Jul-2019
                 8-Feb-2023 
 ******************************************
 %nproc=4
 Will use up to    4 processors via shared memory.
 %mem=5760MB
 %chk=gaussian_98_water_ccsdt_atz.chk
 ----------------------------------------
 #P CCSD(T)/aug-cc-pVTZ scf(maxcycle=200)
 ----------------------------------------
 1/38=1,172=1/1;
 2/12=2,17=6,18=5,40=1/2;
 3/5=16,6=1,7=10,11=9,25=1,30=1/1,2,3;
 4//1;
 5/5=2,7=200,38=5/2;
 8/6=4,9=120000,10=1/1,4;
 9/5=7,14=2/13;
 6/7=2,8=2,9=2,10=2/1;
 99/5=1,9=1/99;
 Leave Link    1 at Wed Feb  8 13:53:14 2023, MaxMem=   754974720 cpu:               0.1 elap:               0.1
 (Enter /opt/cluster/programs/g16-c.01/g16/l101.exe)
 --------------
 Gaussian input
 --------------
 Symbolic Z-matrix:
 Charge =  0 Multiplicity = 1
 O                     0.        0.11751   0. 
 H                     0.75785  -0.47015   0. 
 H                    -0.89067  -0.23799   0. 
 
 ITRead=  0  0  0
 MicOpt= -1 -1 -1
 NAtoms=      3 NQM=        3 NQMF=       0 NMMI=      0 NMMIF=      0
                NMic=       0 NMicF=      0.
                    Isotopes and Nuclear Properties:
 (Nuclear quadrupole moments (NQMom) in fm**2, nuclear magnetic moments (NMagM)
  in nuclear magnetons)

  Atom         1           2           3
 IAtWgt=          16           1           1
 AtmWgt=  15.9949146   1.0078250   1.0078250
 NucSpn=           0           1           1
 AtZEff=  -0.0000000  -0.0000000  -0.0000000
 NQMom=    0.0000000   0.0000000   0.0000000
 NMagM=    0.0000000   2.7928460   2.7928460
 AtZNuc=   8.0000000   1.0000000   1.0000000
 Leave Link  101 at Wed Feb  8 13:53:14 2023, MaxMem=   754974720 cpu:               0.4 elap:               0.2
 (Enter /opt/cluster/programs/g16-c.01/g16/l202.exe)
                          Input orientation:                          
 ---------------------------------------------------------------------
 Center     Atomic      Atomic             Coordinates (Angstroms)
 Number     Number       Type             X           Y           Z
 ---------------------------------------------------------------------
      1          8           0        0.000000    0.117510    0.000000
      2          1           0        0.757850   -0.470150    0.000000
      3          1           0       -0.890673   -0.237993    0.000000
 ---------------------------------------------------------------------
                    Distance matrix (angstroms):
                    1          2          3
     1  O    0.000000
     2  H    0.959000   0.000000
     3  H    0.959000   1.664790   0.000000
 Stoichiometry    H2O
 Framework group  C2V[C2(O),SGV(H2)]
 Deg. of freedom     2
 Full point group                 C2V     NOp   4
 Largest Abelian subgroup         C2V     NOp   4
 Largest concise Abelian subgroup C2      NOp   2
                         Standard orientation:                         
 ---------------------------------------------------------------------
 Center     Atomic      Atomic             Coordinates (Angstroms)
 Number     Number       Type             X           Y           Z
 ---------------------------------------------------------------------
      1          8           0        0.000000    0.000000    0.095247
      2          1           0        0.000000    0.832395   -0.380988
      3          1           0       -0.000000   -0.832395   -0.380988
 ---------------------------------------------------------------------
 Rotational constants (GHZ):        1244.8157535         361.8621772         280.3621872
 Leave Link  202 at Wed Feb  8 13:53:14 2023, MaxMem=   754974720 cpu:               0.2 elap:               0.1
 (Enter /opt/cluster/programs/g16-c.01/g16/l301.exe)
 Standard basis: Aug-CC-pVTZ (5D, 7F)
 Ernie: Thresh=  0.10000D-02 Tol=  0.10000D-05 Strict=F.
 Ernie:  3 primitive shells out of 52 were deleted.
 There are    42 symmetry adapted cartesian basis functions of A1  symmetry.
 There are    12 symmetry adapted cartesian basis functions of A2  symmetry.
 There are    20 symmetry adapted cartesian basis functions of B1  symmetry.
 There are    31 symmetry adapted cartesian basis functions of B2  symmetry.
 There are    35 symmetry adapted basis functions of A1  symmetry.
 There are    12 symmetry adapted basis functions of A2  symmetry.
 There are    18 symmetry adapted basis functions of B1  symmetry.
 There are    27 symmetry adapted basis functions of B2  symmetry.
    92 basis functions,   126 primitive gaussians,   105 cartesian basis functions
     5 alpha electrons        5 beta electrons
       nuclear repulsion energy         9.1466811287 Hartrees.
 IExCor=    0 DFT=F Ex=HF Corr=None ExCW=0 ScaHFX=  1.000000
 ScaDFX=  1.000000  1.000000  1.000000  1.000000 ScalE2=  1.000000  1.000000
 IRadAn=      5 IRanWt=     -1 IRanGd=            0 ICorTp=0 IEmpDi=  4
 NAtoms=    3 NActive=    3 NUniq=    2 SFac= 2.25D+00 NAtFMM=   60 NAOKFM=F Big=F
 Integral buffers will be    131072 words long.
 Raffenetti 1 integral format.
 Two-electron integral symmetry is turned on.
 Leave Link  301 at Wed Feb  8 13:53:14 2023, MaxMem=   754974720 cpu:               0.1 elap:               0.0
 (Enter /opt/cluster/programs/g16-c.01/g16/l302.exe)
 NPDir=0 NMtPBC=     1 NCelOv=     1 NCel=       1 NClECP=     1 NCelD=      1
         NCelK=      1 NCelE2=     1 NClLst=     1 CellRange=     0.0.
 One-electron integrals computed using PRISM.
 One-electron integral symmetry used in STVInt
 NBasis=    92 RedAO= T EigKep=  3.49D-04  NBF=    35    12    18    27
 NBsUse=    92 1.00D-06 EigRej= -1.00D+00 NBFU=    35    12    18    27
 Leave Link  302 at Wed Feb  8 13:53:16 2023, MaxMem=   754974720 cpu:               4.4 elap:               1.5
 (Enter /opt/cluster/programs/g16-c.01/g16/l303.exe)
 DipDrv:  MaxL=1.
 Leave Link  303 at Wed Feb  8 13:53:16 2023, MaxMem=   754974720 cpu:               0.1 elap:               0.0
 (Enter /opt/cluster/programs/g16-c.01/g16/l401.exe)
 ExpMin= 2.53D-02 ExpMax= 1.53D+04 ExpMxC= 5.22D+02 IAcc=3 IRadAn=         5 AccDes= 0.00D+00
 Harris functional with IExCor=  205 and IRadAn=       5 diagonalized for initial guess.
 HarFok:  IExCor=  205 AccDes= 0.00D+00 IRadAn=         5 IDoV= 1 UseB2=F ITyADJ=14
 ICtDFT=  3500011 ScaDFX=  1.000000  1.000000  1.000000  1.000000
 FoFCou: FMM=F IPFlag=           0 FMFlag=      100000 FMFlg1=           0
         NFxFlg=           0 DoJE=T BraDBF=F KetDBF=T FulRan=T
         wScrn=  0.000000 ICntrl=       500 IOpCl=  0 I1Cent=   200000004 NGrid=           0
         NMat0=    1 NMatS0=      1 NMatT0=    0 NMatD0=    1 NMtDS0=    0 NMtDT0=    0
 Petite list used in FoFCou.
 Harris En= -76.1513035057100    
 JPrj=0 DoOrth=F DoCkMO=F.
 Initial guess orbital symmetries:
       Occupied  (A1) (A1) (B2) (A1) (B1)
       Virtual   (A1) (B2) (A1) (B1) (A1) (B2) (B2) (A1) (A2) (A1)
                 (B1) (B2) (A1) (B2) (B2) (A1) (A1) (B1) (A2) (A1)
                 (A1) (B1) (B1) (B2) (A2) (B2) (A1) (B2) (A1) (B1)
                 (B2) (A1) (A2) (B2) (A2) (A1) (B1) (B2) (A1) (B2)
                 (A1) (B1) (A2) (A1) (A1) (B1) (B2) (A1) (B1) (B2)
                 (A1) (A2) (B2) (B2) (A1) (B1) (A2) (B2) (A1) (B1)
                 (B2) (B1) (A2) (A1) (B2) (A1) (B2) (A2) (A1) (B1)
                 (B2) (A1) (A1) (B2) (B1) (A1) (B1) (A1) (A2) (A2)
                 (B1) (B2) (A1) (B2) (A1) (B2) (A1)
 The electronic state of the initial guess is 1-A1.
 Leave Link  401 at Wed Feb  8 13:53:17 2023, MaxMem=   754974720 cpu:               2.0 elap:               1.0
 (Enter /opt/cluster/programs/g16-c.01/g16/l502.exe)
 Keep R1 ints in memory in symmetry-blocked form, NReq=11496777.
 FoFCou: FMM=F IPFlag=           0 FMFlag=           0 FMFlg1=           0
         NFxFlg=           0 DoJE=F BraDBF=F KetDBF=F FulRan=T
         wScrn=  0.000000 ICntrl=       600 IOpCl=  0 I1Cent=           0 NGrid=           0
         NMat0=    1 NMatS0=   4278 NMatT0=    0 NMatD0=    1 NMtDS0=    0 NMtDT0=    0
 Petite list used in FoFCou.
 Closed shell SCF:
 Using DIIS extrapolation, IDIIS=  1040.
 NGot=   754974720 LenX=   752607631 LenY=   752596165
 Requested convergence on RMS density matrix=1.00D-08 within 200 cycles.
 Requested convergence on MAX density matrix=1.00D-06.
 Requested convergence on             energy=1.00D-06.
 No special actions if energy rises.

 Cycle   1  Pass 1  IDiag  1:
 E= -75.9637770603890    
 DIIS: error= 6.40D-02 at cycle   1 NSaved=   1.
 NSaved= 1 IEnMin= 1 EnMin= -75.9637770603890     IErMin= 1 ErrMin= 6.40D-02
 ErrMax= 6.40D-02  0.00D+00 EMaxC= 1.00D-01 BMatC= 2.09D-01 BMatP= 2.09D-01
 IDIUse=3 WtCom= 3.60D-01 WtEn= 6.40D-01
 Coeff-Com:  0.100D+01
 Coeff-En:   0.100D+01
 Coeff:      0.100D+01
 Gap=     0.449 Goal=   None    Shift=    0.000
 GapD=    0.449 DampG=2.000 DampE=0.500 DampFc=1.0000 IDamp=-1.
 RMSDP=2.18D-03 MaxDP=4.98D-02              OVMax= 1.25D-01

 Cycle   2  Pass 1  IDiag  1:
 E= -76.0176047627580     Delta-E=       -0.053827702369 Rises=F Damp=F
 DIIS: error= 4.16D-02 at cycle   2 NSaved=   2.
 NSaved= 2 IEnMin= 2 EnMin= -76.0176047627580     IErMin= 2 ErrMin= 4.16D-02
 ErrMax= 4.16D-02  0.00D+00 EMaxC= 1.00D-01 BMatC= 6.10D-02 BMatP= 2.09D-01
 IDIUse=3 WtCom= 5.84D-01 WtEn= 4.16D-01
 Coeff-Com:  0.324D+00 0.676D+00
 Coeff-En:   0.200D+00 0.800D+00
 Coeff:      0.273D+00 0.727D+00
 Gap=     0.564 Goal=   None    Shift=    0.000
 RMSDP=1.29D-03 MaxDP=3.06D-02 DE=-5.38D-02 OVMax= 6.61D-02

 Cycle   3  Pass 1  IDiag  1:
 E= -76.0534089347535     Delta-E=       -0.035804171995 Rises=F Damp=F
 DIIS: error= 9.04D-03 at cycle   3 NSaved=   3.
 NSaved= 3 IEnMin= 3 EnMin= -76.0534089347535     IErMin= 3 ErrMin= 9.04D-03
 ErrMax= 9.04D-03  0.00D+00 EMaxC= 1.00D-01 BMatC= 3.04D-03 BMatP= 6.10D-02
 IDIUse=3 WtCom= 9.10D-01 WtEn= 9.04D-02
 Coeff-Com: -0.304D-01 0.152D+00 0.879D+00
 Coeff-En:   0.000D+00 0.000D+00 0.100D+01
 Coeff:     -0.276D-01 0.138D+00 0.890D+00
 Gap=     0.533 Goal=   None    Shift=    0.000
 RMSDP=2.23D-04 MaxDP=4.38D-03 DE=-3.58D-02 OVMax= 1.25D-02

 Cycle   4  Pass 1  IDiag  1:
 E= -76.0552842986041     Delta-E=       -0.001875363851 Rises=F Damp=F
 DIIS: error= 6.75D-04 at cycle   4 NSaved=   4.
 NSaved= 4 IEnMin= 4 EnMin= -76.0552842986041     IErMin= 4 ErrMin= 6.75D-04
 ErrMax= 6.75D-04  0.00D+00 EMaxC= 1.00D-01 BMatC= 1.51D-05 BMatP= 3.04D-03
 IDIUse=3 WtCom= 9.93D-01 WtEn= 6.75D-03
 Coeff-Com:  0.598D-02-0.523D-01-0.215D+00 0.126D+01
 Coeff-En:   0.000D+00 0.000D+00 0.000D+00 0.100D+01
 Coeff:      0.594D-02-0.520D-01-0.214D+00 0.126D+01
 Gap=     0.535 Goal=   None    Shift=    0.000
 RMSDP=3.75D-05 MaxDP=7.22D-04 DE=-1.88D-03 OVMax= 2.43D-03

 Cycle   5  Pass 1  IDiag  1:
 E= -76.0553083338303     Delta-E=       -0.000024035226 Rises=F Damp=F
 DIIS: error= 1.83D-04 at cycle   5 NSaved=   5.
 NSaved= 5 IEnMin= 5 EnMin= -76.0553083338303     IErMin= 5 ErrMin= 1.83D-04
 ErrMax= 1.83D-04  0.00D+00 EMaxC= 1.00D-01 BMatC= 7.31D-07 BMatP= 1.51D-05
 IDIUse=3 WtCom= 9.98D-01 WtEn= 1.83D-03
 Coeff-Com:  0.534D-03 0.992D-03-0.236D-02-0.284D+00 0.128D+01
 Coeff-En:   0.000D+00 0.000D+00 0.000D+00 0.000D+00 0.100D+01
 Coeff:      0.533D-03 0.990D-03-0.236D-02-0.283D+00 0.128D+01
 Gap=     0.535 Goal=   None    Shift=    0.000
 RMSDP=1.27D-05 MaxDP=2.45D-04 DE=-2.40D-05 OVMax= 8.98D-04

 Cycle   6  Pass 1  IDiag  1:
 E= -76.0553102813632     Delta-E=       -0.000001947533 Rises=F Damp=F
 DIIS: error= 2.98D-05 at cycle   6 NSaved=   6.
 NSaved= 6 IEnMin= 6 EnMin= -76.0553102813632     IErMin= 6 ErrMin= 2.98D-05
 ErrMax= 2.98D-05  0.00D+00 EMaxC= 1.00D-01 BMatC= 2.18D-08 BMatP= 7.31D-07
 IDIUse=1 WtCom= 1.00D+00 WtEn= 0.00D+00
 Coeff-Com: -0.301D-03 0.154D-02 0.714D-02 0.140D-01-0.303D+00 0.128D+01
 Coeff:     -0.301D-03 0.154D-02 0.714D-02 0.140D-01-0.303D+00 0.128D+01
 Gap=     0.535 Goal=   None    Shift=    0.000
 RMSDP=2.65D-06 MaxDP=6.24D-05 DE=-1.95D-06 OVMax= 1.99D-04

 Cycle   7  Pass 1  IDiag  1:
 E= -76.0553103533289     Delta-E=       -0.000000071966 Rises=F Damp=F
 DIIS: error= 5.85D-06 at cycle   7 NSaved=   7.
 NSaved= 7 IEnMin= 7 EnMin= -76.0553103533289     IErMin= 7 ErrMin= 5.85D-06
 ErrMax= 5.85D-06  0.00D+00 EMaxC= 1.00D-01 BMatC= 1.16D-09 BMatP= 2.18D-08
 IDIUse=1 WtCom= 1.00D+00 WtEn= 0.00D+00
 Coeff-Com:  0.321D-04-0.384D-03-0.154D-02 0.152D-01-0.103D-01-0.234D+00
 Coeff-Com:  0.123D+01
 Coeff:      0.321D-04-0.384D-03-0.154D-02 0.152D-01-0.103D-01-0.234D+00
 Coeff:      0.123D+01
 Gap=     0.535 Goal=   None    Shift=    0.000
 RMSDP=3.87D-07 MaxDP=1.02D-05 DE=-7.20D-08 OVMax= 3.75D-05

 Cycle   8  Pass 1  IDiag  1:
 E= -76.0553103562261     Delta-E=       -0.000000002897 Rises=F Damp=F
 DIIS: error= 1.55D-06 at cycle   8 NSaved=   8.
 NSaved= 8 IEnMin= 8 EnMin= -76.0553103562261     IErMin= 8 ErrMin= 1.55D-06
 ErrMax= 1.55D-06  0.00D+00 EMaxC= 1.00D-01 BMatC= 6.93D-11 BMatP= 1.16D-09
 IDIUse=1 WtCom= 1.00D+00 WtEn= 0.00D+00
 Coeff-Com:  0.838D-05 0.204D-04 0.829D-04-0.565D-02 0.205D-01-0.132D-02
 Coeff-Com: -0.392D+00 0.138D+01
 Coeff:      0.838D-05 0.204D-04 0.829D-04-0.565D-02 0.205D-01-0.132D-02
 Coeff:     -0.392D+00 0.138D+01
 Gap=     0.535 Goal=   None    Shift=    0.000
 RMSDP=1.21D-07 MaxDP=2.95D-06 DE=-2.90D-09 OVMax= 8.87D-06

 Cycle   9  Pass 1  IDiag  1:
 E= -76.0553103563996     Delta-E=       -0.000000000174 Rises=F Damp=F
 DIIS: error= 1.34D-07 at cycle   9 NSaved=   9.
 NSaved= 9 IEnMin= 9 EnMin= -76.0553103563996     IErMin= 9 ErrMin= 1.34D-07
 ErrMax= 1.34D-07  0.00D+00 EMaxC= 1.00D-01 BMatC= 5.34D-13 BMatP= 6.93D-11
 IDIUse=1 WtCom= 1.00D+00 WtEn= 0.00D+00
 Coeff-Com: -0.189D-05 0.118D-05 0.129D-05 0.815D-03-0.327D-02 0.288D-02
 Coeff-Com:  0.603D-01-0.282D+00 0.122D+01
 Coeff:     -0.189D-05 0.118D-05 0.129D-05 0.815D-03-0.327D-02 0.288D-02
 Coeff:      0.603D-01-0.282D+00 0.122D+01
 Gap=     0.535 Goal=   None    Shift=    0.000
 RMSDP=1.51D-08 MaxDP=3.50D-07 DE=-1.74D-10 OVMax= 6.53D-07

 Cycle  10  Pass 1  IDiag  1:
 E= -76.0553103564009     Delta-E=       -0.000000000001 Rises=F Damp=F
 DIIS: error= 2.51D-08 at cycle  10 NSaved=  10.
 NSaved=10 IEnMin=10 EnMin= -76.0553103564009     IErMin=10 ErrMin= 2.51D-08
 ErrMax= 2.51D-08  0.00D+00 EMaxC= 1.00D-01 BMatC= 1.65D-14 BMatP= 5.34D-13
 IDIUse=1 WtCom= 1.00D+00 WtEn= 0.00D+00
 Coeff-Com:  0.472D-06-0.736D-06-0.138D-05-0.176D-03 0.750D-03-0.107D-02
 Coeff-Com: -0.118D-01 0.651D-01-0.400D+00 0.135D+01
 Coeff:      0.472D-06-0.736D-06-0.138D-05-0.176D-03 0.750D-03-0.107D-02
 Coeff:     -0.118D-01 0.651D-01-0.400D+00 0.135D+01
 Gap=     0.535 Goal=   None    Shift=    0.000
 RMSDP=3.17D-09 MaxDP=5.65D-08 DE=-1.28D-12 OVMax= 9.79D-08

 SCF Done:  E(RHF) =  -76.0553103564     A.U. after   10 cycles
            NFock= 10  Conv=0.32D-08     -V/T= 2.0018
 KE= 7.592160209546D+01 PE=-1.989146274508D+02 EE= 3.779103387031D+01
 Leave Link  502 at Wed Feb  8 13:53:17 2023, MaxMem=   754974720 cpu:               1.7 elap:               0.5
 (Enter /opt/cluster/programs/g16-c.01/g16/l801.exe)
 Windowed orbitals will be sorted by symmetry type.
 ExpMin= 2.53D-02 ExpMax= 1.53D+04 ExpMxC= 5.22D+02 IAcc=3 IRadAn=         5 AccDes= 0.00D+00
 HarFok:  IExCor=  205 AccDes= 0.00D+00 IRadAn=         5 IDoV=-2 UseB2=F ITyADJ=14
 ICtDFT= 12500011 ScaDFX=  1.000000  1.000000  1.000000  1.000000
 Largest valence mixing into a core orbital is  1.10D-04
 Largest core mixing into a valence orbital is  1.72D-05
 Range of M.O.s used for correlation:     2    92
 NBasis=    92 NAE=     5 NBE=     5 NFC=     1 NFV=     0
 NROrb=     91 NOA=     4 NOB=     4 NVA=    87 NVB=    87

 **** Warning!!: The largest alpha MO coefficient is  0.15932802D+02

 Leave Link  801 at Wed Feb  8 13:53:17 2023, MaxMem=   754974720 cpu:               0.6 elap:               0.3
 (Enter /opt/cluster/programs/g16-c.01/g16/l804.exe)
 Closed-shell transformation, MDV=   754974720 ITran=4 ISComp=2.
 Unit  1 TFree=        277513 TCopy=        242092.
 Semi-Direct transformation.
 ModeAB=           4 MOrb=             4 LenV=     754589018
 LASXX=       368428 LTotXX=      368428 LenRXX=      751146
 LTotAB=      382718 MaxLAS=     1379560 LenRXY=           0
 NonZer=     1119574 LenScr=     2357760 LnRSAI=     1379560
 LnScr1=     2758656 LExtra=           0 Total=      7247122
 MaxDsk=          -1 SrtSym=           T ITran=            4
 DoSDTr:  NPSUse=  4
 JobTyp=0 Pass  1:  I=   1 to   4.
 (rs|ai) integrals will be sorted in core.
 Complete sort for first half transformation.
 First half transformation complete.
 Complete sort for second half transformation.
 Second half transformation complete.
 Spin components of T(2) and E(2):
     alpha-alpha T2 =       0.8103769620D-02 E2=     -0.3256554805D-01
     alpha-beta  T2 =       0.4698651812D-01 E2=     -0.2027970524D+00
     beta-beta   T2 =       0.8103769620D-02 E2=     -0.3256554805D-01
 ANorm=    0.1031113019D+01
 E2 =    -0.2679281485D+00 EUMP2 =    -0.76323238504883D+02
 Leave Link  804 at Wed Feb  8 13:53:18 2023, MaxMem=   754974720 cpu:               1.7 elap:               0.5
 (Enter /opt/cluster/programs/g16-c.01/g16/l913.exe)
 CIDS:  MDV=   754974720.
 Frozen-core window:  NFC=   1 NFV=   0.
 IFCWin=0 IBDFC=1 NFBD=     0     0 NFCmp=     0     0 NFFFC=     0     0
 Using DD3R+UMP44R for 1st iteration.
 Using DD4RQ for 2nd and later iterations.
 Keep R2 and R3 ints in memory in symmetry-blocked form, NReq=11500115.
 FoFCou: FMM=F IPFlag=           0 FMFlag=           0 FMFlg1=           0
         NFxFlg=           0 DoJE=F BraDBF=F KetDBF=F FulRan=T
         wScrn=  0.000000 ICntrl=       600 IOpCl=  0 I1Cent=           0 NGrid=           0
         NMat0=    1 NMatS0=   4278 NMatT0=    0 NMatD0=    1 NMtDS0=    0 NMtDT0=    0
 Petite list used in FoFCou.
 CIDS: In Core Option IDoMem=           1.
 CCSD(T)
 =======
 Iterations=  50 Convergence= 0.100D-06
 Produce multiple copies of IABC intergrals
 Iteration Nr.   1
 **********************
 DD1Dir will call FoFMem   1 times, MxPair=        20
 NAB=    10 NAA=     0 NBB=     0.
 MP4(R+Q)=  0.40181394D-02
 Maximum subspace dimension=  5
 A-vector RMS=  2.8332869D-03 Max=  1.2181548D-02 conv= 1.00D-05.
 RLE energy=       -0.2665668325
 E3=       -0.26914111D-02        EUMP3=      -0.76325929916D+02
 E4(DQ)=   -0.60758824D-03        UMP4(DQ)=   -0.76326537504D+02
 E4(SDQ)=  -0.24442845D-02        UMP4(SDQ)=  -0.76328374200D+02
 VARIATIONAL ENERGIES WITH THE FIRST-ORDER WAVEFUNCTION:
 DE(Corr)= -0.26655989     E(Corr)=     -76.321870243    
 NORM(A)=   0.10309397D+01
 Iteration Nr.   2
 **********************
 DD1Dir will call FoFMem   1 times, MxPair=        20
 NAB=    10 NAA=     0 NBB=     0.
 A-vector RMS=  3.0573994D-04 Max=  2.1914846D-03 conv= 1.00D-05.
 RLE energy=       -0.2722415666
 DE(Corr)= -0.27186386     E(CORR)=     -76.327174219     Delta=-5.30D-03
 NORM(A)=   0.10330093D+01
 Iteration Nr.   3
 **********************
 DD1Dir will call FoFMem   1 times, MxPair=        20
 NAB=    10 NAA=     0 NBB=     0.
 A-vector RMS=  3.9881491D-04 Max=  2.2554291D-03 conv= 1.00D-05.
 RLE energy=       -0.2725447093
 DE(Corr)= -0.27218167     E(CORR)=     -76.327492029     Delta=-3.18D-04
 NORM(A)=   0.10334080D+01
 Iteration Nr.   4
 **********************
 DD1Dir will call FoFMem   1 times, MxPair=        20
 NAB=    10 NAA=     0 NBB=     0.
 A-vector RMS=  6.0105375D-05 Max=  3.8166984D-04 conv= 1.00D-05.
 RLE energy=       -0.2725758381
 DE(Corr)= -0.27254877     E(CORR)=     -76.327859126     Delta=-3.67D-04
 NORM(A)=   0.10335159D+01
 Iteration Nr.   5
 **********************
 DD1Dir will call FoFMem   1 times, MxPair=        20
 NAB=    10 NAA=     0 NBB=     0.
 A-vector RMS=  3.0383508D-05 Max=  1.9127882D-04 conv= 1.00D-05.
 RLE energy=       -0.2725874398
 DE(Corr)= -0.27258231     E(CORR)=     -76.327892663     Delta=-3.35D-05
 NORM(A)=   0.10335380D+01
 Iteration Nr.   6
 **********************
 DD1Dir will call FoFMem   1 times, MxPair=        20
 NAB=    10 NAA=     0 NBB=     0.
 A-vector RMS=  7.1581025D-06 Max=  3.8563168D-05 conv= 1.00D-05.
 RLE energy=       -0.2725839796
 DE(Corr)= -0.27258489     E(CORR)=     -76.327895243     Delta=-2.58D-06
 NORM(A)=   0.10335400D+01
 Iteration Nr.   7
 **********************
 DD1Dir will call FoFMem   1 times, MxPair=        20
 NAB=    10 NAA=     0 NBB=     0.
 A-vector RMS=  2.8208890D-06 Max=  1.5278160D-05 conv= 1.00D-05.
 RLE energy=       -0.2725839481
 DE(Corr)= -0.27258489     E(CORR)=     -76.327895242     Delta= 1.27D-09
 NORM(A)=   0.10335406D+01
 Iteration Nr.   8
 **********************
 DD1Dir will call FoFMem   1 times, MxPair=        20
 NAB=    10 NAA=     0 NBB=     0.
 A-vector RMS=  1.0541940D-06 Max=  5.0926823D-06 conv= 1.00D-05.
 RLE energy=       -0.2725845259
 DE(Corr)= -0.27258464     E(CORR)=     -76.327894998     Delta= 2.44D-07
 NORM(A)=   0.10335410D+01
 Iteration Nr.   9
 **********************
 DD1Dir will call FoFMem   1 times, MxPair=        20
 NAB=    10 NAA=     0 NBB=     0.
 A-vector RMS=  3.4450047D-07 Max=  1.9961811D-06 conv= 1.00D-05.
 RLE energy=       -0.2725846411
 DE(Corr)= -0.27258466     E(CORR)=     -76.327895014     Delta=-1.59D-08
 NORM(A)=   0.10335411D+01
 CI/CC converged in    9 iterations to DelEn=-1.59D-08 Conv= 1.00D-07 ErrA1= 3.45D-07 Conv= 1.00D-05
 Wavefunction amplitudes converged. E(Corr)=     -76.327895014    
 Largest amplitude= 2.06D-02
 IPart=  1 IA=    6   11.23% done.
 IPart=  2 IA=   11   21.79% done.
 IPart=  3 IA=   16   31.68% done.
 IPart=  4 IA=   21   40.90% done.
 IPart=  3 IA=   27   51.08% done.
 IPart=  1 IA=   33   60.30% done.
 IPart=  1 IA=   41   71.10% done.
 IPart=  1 IA=   49   80.19% done.
 IPart=  4 IA=   61   90.62% done.
 Time for triples=        6.14 seconds.
 T4(CCSD)= -0.89200379D-02
 T5(CCSD)=  0.31623104D-03
 CCSD(T)= -0.76336498821D+02
 Discarding MO integrals.
 Leave Link  913 at Wed Feb  8 13:53:20 2023, MaxMem=   754974720 cpu:               9.7 elap:               2.4
 (Enter /opt/cluster/programs/g16-c.01/g16/l601.exe)
 Copying SCF densities to generalized density rwf, IOpCl= 0 IROHF=0.

 **********************************************************************

            Population analysis using the SCF Density.

 **********************************************************************

 Orbital symmetries:
       Occupied  (A1) (A1) (B2) (A1) (B1)
       Virtual   (A1) (B2) (A1) (B1) (A1) (B2) (B2) (A1) (A2) (B1)
                 (A1) (B2) (A1) (B2) (B2) (A1) (A2) (A1) (B1) (A1)
                 (B1) (A1) (B2) (A2) (B2) (B1) (A1) (A1) (B2) (B1)
                 (B2) (A2) (A1) (B2) (A2) (A1) (B1) (B2) (A1) (B2)
                 (A1) (B1) (A1) (A2) (B1) (A1) (B2) (A1) (B2) (B1)
                 (A1) (A2) (B2) (B2) (A1) (A2) (B1) (B2) (A1) (B1)
                 (B2) (A2) (B1) (A1) (A1) (B2) (B2) (A2) (A1) (B2)
                 (B1) (A1) (A1) (B2) (B1) (A1) (B1) (A1) (A2) (B1)
                 (A2) (B2) (A1) (B2) (A1) (B2) (A1)
 The electronic state is 1-A1.
 Alpha  occ. eigenvalues --  -20.55973  -1.34199  -0.74424  -0.55432  -0.50520
 Alpha virt. eigenvalues --    0.03024   0.04675   0.13779   0.15580   0.17046
 Alpha virt. eigenvalues --    0.17945   0.23259   0.24192   0.25968   0.31830
 Alpha virt. eigenvalues --    0.32380   0.36337   0.43439   0.46580   0.61170
 Alpha virt. eigenvalues --    0.64021   0.71077   0.71362   0.72330   0.82302
 Alpha virt. eigenvalues --    0.84526   0.89128   0.90703   0.91193   0.92577
 Alpha virt. eigenvalues --    0.94190   1.00238   1.02297   1.04506   1.09169
 Alpha virt. eigenvalues --    1.13553   1.15695   1.16685   1.27697   1.53346
 Alpha virt. eigenvalues --    1.61509   1.62380   1.66525   1.78728   2.05057
 Alpha virt. eigenvalues --    2.12131   2.24435   2.30289   2.32943   2.36581
 Alpha virt. eigenvalues --    2.38334   2.42014   2.44530   2.72734   2.73531
 Alpha virt. eigenvalues --    2.79333   2.86367   2.97348   3.61620   3.79294
 Alpha virt. eigenvalues --    4.01604   4.09051   4.18259   4.24907   4.35589
 Alpha virt. eigenvalues --    4.39425   4.40799   4.41017   4.57224   4.62228
 Alpha virt. eigenvalues --    4.67902   5.15843   5.22578   5.27856   5.47614
 Alpha virt. eigenvalues --    5.47932   5.84163   5.93690   6.57673   6.68208
 Alpha virt. eigenvalues --    6.74207   7.15174   7.20851   7.22010   7.30390
 Alpha virt. eigenvalues --    7.38023   7.57832   7.60542   7.73707   8.07409
 Alpha virt. eigenvalues --    8.70584  16.01565
          Condensed to atoms (all electrons):
               1          2          3
     1  O    7.880795   0.284238   0.284238
     2  H    0.284238   0.479028   0.012099
     3  H    0.284238   0.012099   0.479028
 Mulliken charges:
               1
     1  O   -0.449270
     2  H    0.224635
     3  H    0.224635
 Sum of Mulliken charges =   0.00000
 Mulliken charges with hydrogens summed into heavy atoms:
               1
     1  O    0.000000
 Electronic spatial extent (au):  <R**2>=             19.5296
 Charge=              0.0000 electrons
 Dipole moment (field-independent basis, Debye):
    X=             -0.0000    Y=              0.0000    Z=             -1.6974  Tot=              1.6974
 Quadrupole moment (field-independent basis, Debye-Ang):
   XX=             -7.5950   YY=             -3.5558   ZZ=             -6.7180
   XY=              0.0000   XZ=              0.0000   YZ=             -0.0000
 Traceless Quadrupole moment (field-independent basis, Debye-Ang):
   XX=             -1.6388   YY=              2.4005   ZZ=             -0.7618
   XY=              0.0000   XZ=              0.0000   YZ=             -0.0000
 Octapole moment (field-independent basis, Debye-Ang**2):
  XXX=              0.0000  YYY=              0.0000  ZZZ=             -0.8417  XYY=             -0.0000
  XXY=             -0.0000  XXZ=             -0.2173  XZZ=              0.0000  YZZ=              0.0000
  YYZ=             -1.3789  XYZ=             -0.0000
 Hexadecapole moment (field-independent basis, Debye-Ang**3):
 XXXX=             -6.8357 YYYY=             -5.3452 ZZZZ=             -7.2217 XXXY=             -0.0000
 XXXZ=             -0.0000 YYYX=              0.0000 YYYZ=             -0.0000 ZZZX=             -0.0000
 ZZZY=              0.0000 XXYY=             -2.5322 XXZZ=             -2.3634 YYZZ=             -2.0380
 XXYZ=              0.0000 YYXZ=              0.0000 ZZXY=             -0.0000
 N-N= 9.146681128668D+00 E-N=-1.989146274776D+02  KE= 7.592160209546D+01
 Symmetry A1   KE= 6.794866045737D+01
 Symmetry A2   KE= 6.480318679810D-20
 Symmetry B1   KE= 4.446129328012D+00
 Symmetry B2   KE= 3.526812310078D+00
 Leave Link  601 at Wed Feb  8 13:53:21 2023, MaxMem=   754974720 cpu:               0.3 elap:               0.1
 (Enter /opt/cluster/programs/g16-c.01/g16/l9999.exe)
 Unable to Open any file for archive entry.
 1\1\GINC-NODE65\SP\RCCSD(T)-FC\Aug-CC-pVTZ\H2O1\BOITTIER\08-Feb-2023\0
 \\#P CCSD(T)/aug-cc-pVTZ scf(maxcycle=200)\\Gaussian input\\0,1\O,0,0.
 ,0.11751,0.\H,0,0.7578497316,-0.4701504329,0.\H,0,-0.8906732822,-0.237
 9926082,0.\\Version=ES64L-G16RevC.01\State=1-A1\HF=-76.0553104\MP2=-76
 .3232385\MP3=-76.3259299\MP4D=-76.3305556\MP4DQ=-76.3265375\MP4SDQ=-76
 .3283742\CCSD=-76.327895\CCSD(T)=-76.3364988\RMSD=3.174e-09\PG=C02V [C
 2(O1),SGV(H2)]\\@
 The archive entry for this job was punched.


 ALTHOUGH J.J. COULD DIAGNOSE THE FAULTS OF AN
 APPARATUS WITH UNCANNY ACCURACY, IT WAS JUST AS
 WELL NOT TO LET HIM HANDLE IT.
   -- GEORGE THOMPSON, ABOUT HIS FATHER
 Job cpu time:       0 days  0 hours  0 minutes 21.6 seconds.
 Elapsed time:       0 days  0 hours  0 minutes  6.7 seconds.
 File lengths (MBytes):  RWF=     64 Int=      0 D2E=      0 Chk=      2 Scr=      1
 Normal termination of Gaussian 16 at Wed Feb  8 13:53:31 2023.
