 Entering Gaussian System, Link 0=/opt/cluster/programs/g16-c.01/g16/g16
 Input=/scratch/boittier/jobs/tmp.7261858/gaussian_178_water_ccsdt_atz.com
 Output=/scratch/boittier/jobs/tmp.7261858/gaussian_178_water_ccsdt_atz.out
 Initial command:
 /opt/cluster/programs/g16-c.01/g16/l1.exe "/scratch/boittier/jobs/tmp.7261858/Gau-173148.inp" -scrdir="/scratch/boittier/jobs/tmp.7261858/"
 Entering Link 1 = /opt/cluster/programs/g16-c.01/g16/l1.exe PID=    173149.
  
 Copyright (c) 1988-2019, Gaussian, Inc.  All Rights Reserved.
  
 This is part of the Gaussian(R) 16 program.  It is based on
 the Gaussian(R) 09 system (copyright 2009, Gaussian, Inc.),
 the Gaussian(R) 03 system (copyright 2003, Gaussian, Inc.),
 the Gaussian(R) 98 system (copyright 1998, Gaussian, Inc.),
 the Gaussian(R) 94 system (copyright 1995, Gaussian, Inc.),
 the Gaussian 92(TM) system (copyright 1992, Gaussian, Inc.),
 the Gaussian 90(TM) system (copyright 1990, Gaussian, Inc.),
 the Gaussian 88(TM) system (copyright 1988, Gaussian, Inc.),
 the Gaussian 86(TM) system (copyright 1986, Carnegie Mellon
 University), and the Gaussian 82(TM) system (copyright 1983,
 Carnegie Mellon University). Gaussian is a federally registered
 trademark of Gaussian, Inc.
  
 This software contains proprietary and confidential information,
 including trade secrets, belonging to Gaussian, Inc.
  
 This software is provided under written license and may be
 used, copied, transmitted, or stored only in accord with that
 written license.
  
 The following legend is applicable only to US Government
 contracts under FAR:
  
                    RESTRICTED RIGHTS LEGEND
  
 Use, reproduction and disclosure by the US Government is
 subject to restrictions as set forth in subparagraphs (a)
 and (c) of the Commercial Computer Software - Restricted
 Rights clause in FAR 52.227-19.
  
 Gaussian, Inc.
 340 Quinnipiac St., Bldg. 40, Wallingford CT 06492
  
  
 ---------------------------------------------------------------
 Warning -- This program may not be used in any manner that
 competes with the business of Gaussian, Inc. or will provide
 assistance to any competitor of Gaussian, Inc.  The licensee
 of this program is prohibited from giving any competitor of
 Gaussian, Inc. access to this program.  By using this program,
 the user acknowledges that Gaussian, Inc. is engaged in the
 business of creating and licensing software in the field of
 computational chemistry and represents and warrants to the
 licensee that it is not a competitor of Gaussian, Inc. and that
 it will not use this program in any manner prohibited above.
 ---------------------------------------------------------------
  

 Cite this work as:
 Gaussian 16, Revision C.01,
 M. J. Frisch, G. W. Trucks, H. B. Schlegel, G. E. Scuseria, 
 M. A. Robb, J. R. Cheeseman, G. Scalmani, V. Barone, 
 G. A. Petersson, H. Nakatsuji, X. Li, M. Caricato, A. V. Marenich, 
 J. Bloino, B. G. Janesko, R. Gomperts, B. Mennucci, H. P. Hratchian, 
 J. V. Ortiz, A. F. Izmaylov, J. L. Sonnenberg, D. Williams-Young, 
 F. Ding, F. Lipparini, F. Egidi, J. Goings, B. Peng, A. Petrone, 
 T. Henderson, D. Ranasinghe, V. G. Zakrzewski, J. Gao, N. Rega, 
 G. Zheng, W. Liang, M. Hada, M. Ehara, K. Toyota, R. Fukuda, 
 J. Hasegawa, M. Ishida, T. Nakajima, Y. Honda, O. Kitao, H. Nakai, 
 T. Vreven, K. Throssell, J. A. Montgomery, Jr., J. E. Peralta, 
 F. Ogliaro, M. J. Bearpark, J. J. Heyd, E. N. Brothers, K. N. Kudin, 
 V. N. Staroverov, T. A. Keith, R. Kobayashi, J. Normand, 
 K. Raghavachari, A. P. Rendell, J. C. Burant, S. S. Iyengar, 
 J. Tomasi, M. Cossi, J. M. Millam, M. Klene, C. Adamo, R. Cammi, 
 J. W. Ochterski, R. L. Martin, K. Morokuma, O. Farkas, 
 J. B. Foresman, and D. J. Fox, Gaussian, Inc., Wallingford CT, 2019.
 
 ******************************************
 Gaussian 16:  ES64L-G16RevC.01  3-Jul-2019
                 8-Feb-2023 
 ******************************************
 %nproc=4
 Will use up to    4 processors via shared memory.
 %mem=5760MB
 %chk=gaussian_178_water_ccsdt_atz.chk
 ----------------------------------------
 #P CCSD(T)/aug-cc-pVTZ scf(maxcycle=200)
 ----------------------------------------
 1/38=1,172=1/1;
 2/12=2,17=6,18=5,40=1/2;
 3/5=16,6=1,7=10,11=9,25=1,30=1/1,2,3;
 4//1;
 5/5=2,7=200,38=5/2;
 8/6=4,9=120000,10=1/1,4;
 9/5=7,14=2/13;
 6/7=2,8=2,9=2,10=2/1;
 99/5=1,9=1/99;
 Leave Link    1 at Wed Feb  8 13:58:06 2023, MaxMem=   754974720 cpu:               0.1 elap:               0.0
 (Enter /opt/cluster/programs/g16-c.01/g16/l101.exe)
 --------------
 Gaussian input
 --------------
 Symbolic Z-matrix:
 Charge =  0 Multiplicity = 1
 O                     0.        0.11751   0. 
 H                     0.79736  -0.50079   0. 
 H                    -0.93711  -0.25653   0. 
 
 ITRead=  0  0  0
 MicOpt= -1 -1 -1
 NAtoms=      3 NQM=        3 NQMF=       0 NMMI=      0 NMMIF=      0
                NMic=       0 NMicF=      0.
                    Isotopes and Nuclear Properties:
 (Nuclear quadrupole moments (NQMom) in fm**2, nuclear magnetic moments (NMagM)
  in nuclear magnetons)

  Atom         1           2           3
 IAtWgt=          16           1           1
 AtmWgt=  15.9949146   1.0078250   1.0078250
 NucSpn=           0           1           1
 AtZEff=  -0.0000000  -0.0000000  -0.0000000
 NQMom=    0.0000000   0.0000000   0.0000000
 NMagM=    0.0000000   2.7928460   2.7928460
 AtZNuc=   8.0000000   1.0000000   1.0000000
 Leave Link  101 at Wed Feb  8 13:58:06 2023, MaxMem=   754974720 cpu:               0.3 elap:               0.2
 (Enter /opt/cluster/programs/g16-c.01/g16/l202.exe)
                          Input orientation:                          
 ---------------------------------------------------------------------
 Center     Atomic      Atomic             Coordinates (Angstroms)
 Number     Number       Type             X           Y           Z
 ---------------------------------------------------------------------
      1          8           0        0.000000    0.117510    0.000000
      2          1           0        0.797362   -0.500790    0.000000
      3          1           0       -0.937111   -0.256528    0.000000
 ---------------------------------------------------------------------
                    Distance matrix (angstroms):
                    1          2          3
     1  O    0.000000
     2  H    1.009000   0.000000
     3  H    1.009000   1.751588   0.000000
 Stoichiometry    H2O
 Framework group  C2V[C2(O),SGV(H2)]
 Deg. of freedom     2
 Full point group                 C2V     NOp   4
 Largest Abelian subgroup         C2V     NOp   4
 Largest concise Abelian subgroup C2      NOp   2
                         Standard orientation:                         
 ---------------------------------------------------------------------
 Center     Atomic      Atomic             Coordinates (Angstroms)
 Number     Number       Type             X           Y           Z
 ---------------------------------------------------------------------
      1          8           0        0.000000    0.000000    0.100213
      2          1           0        0.000000    0.875794   -0.400852
      3          1           0       -0.000000   -0.875794   -0.400852
 ---------------------------------------------------------------------
 Rotational constants (GHZ):        1124.5012892         326.8873193         253.2645012
 Leave Link  202 at Wed Feb  8 13:58:07 2023, MaxMem=   754974720 cpu:               0.3 elap:               0.2
 (Enter /opt/cluster/programs/g16-c.01/g16/l301.exe)
 Standard basis: Aug-CC-pVTZ (5D, 7F)
 Ernie: Thresh=  0.10000D-02 Tol=  0.10000D-05 Strict=F.
 Ernie:  3 primitive shells out of 52 were deleted.
 There are    42 symmetry adapted cartesian basis functions of A1  symmetry.
 There are    12 symmetry adapted cartesian basis functions of A2  symmetry.
 There are    20 symmetry adapted cartesian basis functions of B1  symmetry.
 There are    31 symmetry adapted cartesian basis functions of B2  symmetry.
 There are    35 symmetry adapted basis functions of A1  symmetry.
 There are    12 symmetry adapted basis functions of A2  symmetry.
 There are    18 symmetry adapted basis functions of B1  symmetry.
 There are    27 symmetry adapted basis functions of B2  symmetry.
    92 basis functions,   126 primitive gaussians,   105 cartesian basis functions
     5 alpha electrons        5 beta electrons
       nuclear repulsion energy         8.6934263651 Hartrees.
 IExCor=    0 DFT=F Ex=HF Corr=None ExCW=0 ScaHFX=  1.000000
 ScaDFX=  1.000000  1.000000  1.000000  1.000000 ScalE2=  1.000000  1.000000
 IRadAn=      5 IRanWt=     -1 IRanGd=            0 ICorTp=0 IEmpDi=  4
 NAtoms=    3 NActive=    3 NUniq=    2 SFac= 2.25D+00 NAtFMM=   60 NAOKFM=F Big=F
 Integral buffers will be    131072 words long.
 Raffenetti 1 integral format.
 Two-electron integral symmetry is turned on.
 Leave Link  301 at Wed Feb  8 13:58:07 2023, MaxMem=   754974720 cpu:               0.1 elap:               0.0
 (Enter /opt/cluster/programs/g16-c.01/g16/l302.exe)
 NPDir=0 NMtPBC=     1 NCelOv=     1 NCel=       1 NClECP=     1 NCelD=      1
         NCelK=      1 NCelE2=     1 NClLst=     1 CellRange=     0.0.
 One-electron integrals computed using PRISM.
 One-electron integral symmetry used in STVInt
 NBasis=    92 RedAO= T EigKep=  3.88D-04  NBF=    35    12    18    27
 NBsUse=    92 1.00D-06 EigRej= -1.00D+00 NBFU=    35    12    18    27
 Leave Link  302 at Wed Feb  8 13:58:10 2023, MaxMem=   754974720 cpu:               5.7 elap:               2.9
 (Enter /opt/cluster/programs/g16-c.01/g16/l303.exe)
 DipDrv:  MaxL=1.
 Leave Link  303 at Wed Feb  8 13:58:10 2023, MaxMem=   754974720 cpu:               0.4 elap:               0.2
 (Enter /opt/cluster/programs/g16-c.01/g16/l401.exe)
 ExpMin= 2.53D-02 ExpMax= 1.53D+04 ExpMxC= 5.22D+02 IAcc=3 IRadAn=         5 AccDes= 0.00D+00
 Harris functional with IExCor=  205 and IRadAn=       5 diagonalized for initial guess.
 HarFok:  IExCor=  205 AccDes= 0.00D+00 IRadAn=         5 IDoV= 1 UseB2=F ITyADJ=14
 ICtDFT=  3500011 ScaDFX=  1.000000  1.000000  1.000000  1.000000
 FoFCou: FMM=F IPFlag=           0 FMFlag=      100000 FMFlg1=           0
         NFxFlg=           0 DoJE=T BraDBF=F KetDBF=T FulRan=T
         wScrn=  0.000000 ICntrl=       500 IOpCl=  0 I1Cent=   200000004 NGrid=           0
         NMat0=    1 NMatS0=      1 NMatT0=    0 NMatD0=    1 NMtDS0=    0 NMtDT0=    0
 Petite list used in FoFCou.
 Harris En= -76.1435115945069    
 JPrj=0 DoOrth=F DoCkMO=F.
 Initial guess orbital symmetries:
       Occupied  (A1) (A1) (B2) (A1) (B1)
       Virtual   (A1) (B2) (A1) (B1) (A1) (B2) (B2) (A1) (A2) (A1)
                 (B1) (B2) (A1) (B2) (B2) (A1) (A1) (B1) (A2) (A1)
                 (A1) (B1) (B2) (B1) (A2) (B2) (A1) (B2) (A1) (B1)
                 (A1) (B2) (A2) (B2) (A2) (B1) (A1) (B2) (A1) (B2)
                 (A1) (B1) (A2) (A1) (A1) (B1) (B2) (A1) (A1) (B1)
                 (B2) (A2) (B2) (B2) (A1) (B1) (A2) (B2) (A1) (B1)
                 (A1) (B2) (B1) (A2) (B2) (A1) (B2) (A1) (A2) (B1)
                 (B2) (A1) (A1) (B2) (B1) (A1) (B1) (A1) (A2) (B1)
                 (A2) (A1) (B2) (B2) (A1) (B2) (A1)
 The electronic state of the initial guess is 1-A1.
 Leave Link  401 at Wed Feb  8 13:58:11 2023, MaxMem=   754974720 cpu:               3.0 elap:               1.5
 (Enter /opt/cluster/programs/g16-c.01/g16/l502.exe)
 Keep R1 ints in memory in symmetry-blocked form, NReq=11496777.
 FoFCou: FMM=F IPFlag=           0 FMFlag=           0 FMFlg1=           0
         NFxFlg=           0 DoJE=F BraDBF=F KetDBF=F FulRan=T
         wScrn=  0.000000 ICntrl=       600 IOpCl=  0 I1Cent=           0 NGrid=           0
         NMat0=    1 NMatS0=   4278 NMatT0=    0 NMatD0=    1 NMtDS0=    0 NMtDT0=    0
 Petite list used in FoFCou.
 Closed shell SCF:
 Using DIIS extrapolation, IDIIS=  1040.
 NGot=   754974720 LenX=   752607631 LenY=   752596165
 Requested convergence on RMS density matrix=1.00D-08 within 200 cycles.
 Requested convergence on MAX density matrix=1.00D-06.
 Requested convergence on             energy=1.00D-06.
 No special actions if energy rises.

 Cycle   1  Pass 1  IDiag  1:
 E= -75.9587396720430    
 DIIS: error= 5.74D-02 at cycle   1 NSaved=   1.
 NSaved= 1 IEnMin= 1 EnMin= -75.9587396720430     IErMin= 1 ErrMin= 5.74D-02
 ErrMax= 5.74D-02  0.00D+00 EMaxC= 1.00D-01 BMatC= 1.98D-01 BMatP= 1.98D-01
 IDIUse=3 WtCom= 4.26D-01 WtEn= 5.74D-01
 Coeff-Com:  0.100D+01
 Coeff-En:   0.100D+01
 Coeff:      0.100D+01
 Gap=     0.451 Goal=   None    Shift=    0.000
 GapD=    0.451 DampG=2.000 DampE=0.500 DampFc=1.0000 IDamp=-1.
 RMSDP=2.13D-03 MaxDP=4.76D-02              OVMax= 1.26D-01

 Cycle   2  Pass 1  IDiag  1:
 E= -76.0071009282843     Delta-E=       -0.048361256241 Rises=F Damp=F
 DIIS: error= 4.00D-02 at cycle   2 NSaved=   2.
 NSaved= 2 IEnMin= 2 EnMin= -76.0071009282843     IErMin= 2 ErrMin= 4.00D-02
 ErrMax= 4.00D-02  0.00D+00 EMaxC= 1.00D-01 BMatC= 6.17D-02 BMatP= 1.98D-01
 IDIUse=3 WtCom= 6.00D-01 WtEn= 4.00D-01
 Coeff-Com:  0.331D+00 0.669D+00
 Coeff-En:   0.232D+00 0.768D+00
 Coeff:      0.291D+00 0.709D+00
 Gap=     0.556 Goal=   None    Shift=    0.000
 RMSDP=1.29D-03 MaxDP=3.11D-02 DE=-4.84D-02 OVMax= 6.70D-02

 Cycle   3  Pass 1  IDiag  1:
 E= -76.0442659422159     Delta-E=       -0.037165013932 Rises=F Damp=F
 DIIS: error= 8.08D-03 at cycle   3 NSaved=   3.
 NSaved= 3 IEnMin= 3 EnMin= -76.0442659422159     IErMin= 3 ErrMin= 8.08D-03
 ErrMax= 8.08D-03  0.00D+00 EMaxC= 1.00D-01 BMatC= 2.85D-03 BMatP= 6.17D-02
 IDIUse=3 WtCom= 9.19D-01 WtEn= 8.08D-02
 Coeff-Com: -0.314D-01 0.146D+00 0.886D+00
 Coeff-En:   0.000D+00 0.000D+00 0.100D+01
 Coeff:     -0.289D-01 0.134D+00 0.895D+00
 Gap=     0.527 Goal=   None    Shift=    0.000
 RMSDP=2.20D-04 MaxDP=4.28D-03 DE=-3.72D-02 OVMax= 1.30D-02

 Cycle   4  Pass 1  IDiag  1:
 E= -76.0460940853216     Delta-E=       -0.001828143106 Rises=F Damp=F
 DIIS: error= 7.17D-04 at cycle   4 NSaved=   4.
 NSaved= 4 IEnMin= 4 EnMin= -76.0460940853216     IErMin= 4 ErrMin= 7.17D-04
 ErrMax= 7.17D-04  0.00D+00 EMaxC= 1.00D-01 BMatC= 1.73D-05 BMatP= 2.85D-03
 IDIUse=3 WtCom= 9.93D-01 WtEn= 7.17D-03
 Coeff-Com:  0.648D-02-0.532D-01-0.233D+00 0.128D+01
 Coeff-En:   0.000D+00 0.000D+00 0.000D+00 0.100D+01
 Coeff:      0.644D-02-0.528D-01-0.232D+00 0.128D+01
 Gap=     0.529 Goal=   None    Shift=    0.000
 RMSDP=4.48D-05 MaxDP=7.81D-04 DE=-1.83D-03 OVMax= 2.78D-03

 Cycle   5  Pass 1  IDiag  1:
 E= -76.0461259340092     Delta-E=       -0.000031848688 Rises=F Damp=F
 DIIS: error= 2.17D-04 at cycle   5 NSaved=   5.
 NSaved= 5 IEnMin= 5 EnMin= -76.0461259340092     IErMin= 5 ErrMin= 2.17D-04
 ErrMax= 2.17D-04  0.00D+00 EMaxC= 1.00D-01 BMatC= 1.03D-06 BMatP= 1.73D-05
 IDIUse=3 WtCom= 9.98D-01 WtEn= 2.17D-03
 Coeff-Com:  0.859D-03-0.969D-03-0.102D-01-0.261D+00 0.127D+01
 Coeff-En:   0.000D+00 0.000D+00 0.000D+00 0.000D+00 0.100D+01
 Coeff:      0.857D-03-0.967D-03-0.102D-01-0.260D+00 0.127D+01
 Gap=     0.530 Goal=   None    Shift=    0.000
 RMSDP=1.56D-05 MaxDP=2.98D-04 DE=-3.18D-05 OVMax= 1.06D-03

 Cycle   6  Pass 1  IDiag  1:
 E= -76.0461288210136     Delta-E=       -0.000002887004 Rises=F Damp=F
 DIIS: error= 3.80D-05 at cycle   6 NSaved=   6.
 NSaved= 6 IEnMin= 6 EnMin= -76.0461288210136     IErMin= 6 ErrMin= 3.80D-05
 ErrMax= 3.80D-05  0.00D+00 EMaxC= 1.00D-01 BMatC= 3.52D-08 BMatP= 1.03D-06
 IDIUse=1 WtCom= 1.00D+00 WtEn= 0.00D+00
 Coeff-Com: -0.406D-03 0.210D-02 0.102D-01 0.624D-02-0.315D+00 0.130D+01
 Coeff:     -0.406D-03 0.210D-02 0.102D-01 0.624D-02-0.315D+00 0.130D+01
 Gap=     0.530 Goal=   None    Shift=    0.000
 RMSDP=3.50D-06 MaxDP=8.34D-05 DE=-2.89D-06 OVMax= 2.58D-04

 Cycle   7  Pass 1  IDiag  1:
 E= -76.0461289426938     Delta-E=       -0.000000121680 Rises=F Damp=F
 DIIS: error= 8.29D-06 at cycle   7 NSaved=   7.
 NSaved= 7 IEnMin= 7 EnMin= -76.0461289426938     IErMin= 7 ErrMin= 8.29D-06
 ErrMax= 8.29D-06  0.00D+00 EMaxC= 1.00D-01 BMatC= 1.96D-09 BMatP= 3.52D-08
 IDIUse=1 WtCom= 1.00D+00 WtEn= 0.00D+00
 Coeff-Com:  0.547D-04-0.489D-03-0.232D-02 0.160D-01 0.500D-02-0.294D+00
 Coeff-Com:  0.128D+01
 Coeff:      0.547D-04-0.489D-03-0.232D-02 0.160D-01 0.500D-02-0.294D+00
 Coeff:      0.128D+01
 Gap=     0.530 Goal=   None    Shift=    0.000
 RMSDP=5.30D-07 MaxDP=1.48D-05 DE=-1.22D-07 OVMax= 5.24D-05

 Cycle   8  Pass 1  IDiag  1:
 E= -76.0461289478555     Delta-E=       -0.000000005162 Rises=F Damp=F
 DIIS: error= 2.38D-06 at cycle   8 NSaved=   8.
 NSaved= 8 IEnMin= 8 EnMin= -76.0461289478555     IErMin= 8 ErrMin= 2.38D-06
 ErrMax= 2.38D-06  0.00D+00 EMaxC= 1.00D-01 BMatC= 1.22D-10 BMatP= 1.96D-09
 IDIUse=1 WtCom= 1.00D+00 WtEn= 0.00D+00
 Coeff-Com:  0.853D-05 0.180D-04 0.173D-03-0.601D-02 0.188D-01 0.137D-01
 Coeff-Com: -0.417D+00 0.139D+01
 Coeff:      0.853D-05 0.180D-04 0.173D-03-0.601D-02 0.188D-01 0.137D-01
 Coeff:     -0.417D+00 0.139D+01
 Gap=     0.530 Goal=   None    Shift=    0.000
 RMSDP=1.64D-07 MaxDP=3.96D-06 DE=-5.16D-09 OVMax= 1.19D-05

 Cycle   9  Pass 1  IDiag  1:
 E= -76.0461289481598     Delta-E=       -0.000000000304 Rises=F Damp=F
 DIIS: error= 2.21D-07 at cycle   9 NSaved=   9.
 NSaved= 9 IEnMin= 9 EnMin= -76.0461289481598     IErMin= 9 ErrMin= 2.21D-07
 ErrMax= 2.21D-07  0.00D+00 EMaxC= 1.00D-01 BMatC= 1.20D-12 BMatP= 1.22D-10
 IDIUse=1 WtCom= 1.00D+00 WtEn= 0.00D+00
 Coeff-Com: -0.239D-05 0.221D-05-0.155D-04 0.104D-02-0.346D-02-0.911D-03
 Coeff-Com:  0.835D-01-0.348D+00 0.127D+01
 Coeff:     -0.239D-05 0.221D-05-0.155D-04 0.104D-02-0.346D-02-0.911D-03
 Coeff:      0.835D-01-0.348D+00 0.127D+01
 Gap=     0.530 Goal=   None    Shift=    0.000
 RMSDP=2.20D-08 MaxDP=4.51D-07 DE=-3.04D-10 OVMax= 8.72D-07

 Cycle  10  Pass 1  IDiag  1:
 E= -76.0461289481627     Delta-E=       -0.000000000003 Rises=F Damp=F
 DIIS: error= 4.26D-08 at cycle  10 NSaved=  10.
 NSaved=10 IEnMin=10 EnMin= -76.0461289481627     IErMin=10 ErrMin= 4.26D-08
 ErrMax= 4.26D-08  0.00D+00 EMaxC= 1.00D-01 BMatC= 4.75D-14 BMatP= 1.20D-12
 IDIUse=1 WtCom= 1.00D+00 WtEn= 0.00D+00
 Coeff-Com:  0.686D-06-0.123D-05 0.208D-05-0.258D-03 0.923D-03-0.388D-03
 Coeff-Com: -0.187D-01 0.894D-01-0.469D+00 0.140D+01
 Coeff:      0.686D-06-0.123D-05 0.208D-05-0.258D-03 0.923D-03-0.388D-03
 Coeff:     -0.187D-01 0.894D-01-0.469D+00 0.140D+01
 Gap=     0.530 Goal=   None    Shift=    0.000
 RMSDP=5.39D-09 MaxDP=1.29D-07 DE=-2.91D-12 OVMax= 2.41D-07

 SCF Done:  E(RHF) =  -76.0461289482     A.U. after   10 cycles
            NFock= 10  Conv=0.54D-08     -V/T= 2.0040
 KE= 7.574207958866D+01 PE=-1.979269154404D+02 EE= 3.744528053847D+01
 Leave Link  502 at Wed Feb  8 13:58:23 2023, MaxMem=   754974720 cpu:              23.3 elap:              11.7
 (Enter /opt/cluster/programs/g16-c.01/g16/l801.exe)
 Windowed orbitals will be sorted by symmetry type.
 ExpMin= 2.53D-02 ExpMax= 1.53D+04 ExpMxC= 5.22D+02 IAcc=3 IRadAn=         5 AccDes= 0.00D+00
 HarFok:  IExCor=  205 AccDes= 0.00D+00 IRadAn=         5 IDoV=-2 UseB2=F ITyADJ=14
 ICtDFT= 12500011 ScaDFX=  1.000000  1.000000  1.000000  1.000000
 Largest valence mixing into a core orbital is  1.12D-04
 Largest core mixing into a valence orbital is  1.86D-05
 Range of M.O.s used for correlation:     2    92
 NBasis=    92 NAE=     5 NBE=     5 NFC=     1 NFV=     0
 NROrb=     91 NOA=     4 NOB=     4 NVA=    87 NVB=    87

 **** Warning!!: The largest alpha MO coefficient is  0.15419483D+02

 Leave Link  801 at Wed Feb  8 13:58:23 2023, MaxMem=   754974720 cpu:               0.6 elap:               0.3
 (Enter /opt/cluster/programs/g16-c.01/g16/l804.exe)
 Closed-shell transformation, MDV=   754974720 ITran=4 ISComp=2.
 Unit  1 TFree=        277513 TCopy=        242092.
 Semi-Direct transformation.
 ModeAB=           4 MOrb=             4 LenV=     754589018
 LASXX=       368428 LTotXX=      368428 LenRXX=      751146
 LTotAB=      382718 MaxLAS=     1379560 LenRXY=           0
 NonZer=     1119574 LenScr=     2357760 LnRSAI=     1379560
 LnScr1=     2758656 LExtra=           0 Total=      7247122
 MaxDsk=          -1 SrtSym=           T ITran=            4
 DoSDTr:  NPSUse=  4
 JobTyp=0 Pass  1:  I=   1 to   4.
 (rs|ai) integrals will be sorted in core.
 Complete sort for first half transformation.
 First half transformation complete.
 Complete sort for second half transformation.
 Second half transformation complete.
 Spin components of T(2) and E(2):
     alpha-alpha T2 =       0.8515320059D-02 E2=     -0.3300992962D-01
     alpha-beta  T2 =       0.4974232777D-01 E2=     -0.2058253291D+00
     beta-beta   T2 =       0.8515320059D-02 E2=     -0.3300992962D-01
 ANorm=    0.1032847021D+01
 E2 =    -0.2718451884D+00 EUMP2 =    -0.76317974136528D+02
 Leave Link  804 at Wed Feb  8 13:58:33 2023, MaxMem=   754974720 cpu:              19.1 elap:               9.6
 (Enter /opt/cluster/programs/g16-c.01/g16/l913.exe)
 CIDS:  MDV=   754974720.
 Frozen-core window:  NFC=   1 NFV=   0.
 IFCWin=0 IBDFC=1 NFBD=     0     0 NFCmp=     0     0 NFFFC=     0     0
 Using DD3R+UMP44R for 1st iteration.
 Using DD4RQ for 2nd and later iterations.
 Keep R2 and R3 ints in memory in symmetry-blocked form, NReq=11500115.
 FoFCou: FMM=F IPFlag=           0 FMFlag=           0 FMFlg1=           0
         NFxFlg=           0 DoJE=F BraDBF=F KetDBF=F FulRan=T
         wScrn=  0.000000 ICntrl=       600 IOpCl=  0 I1Cent=           0 NGrid=           0
         NMat0=    1 NMatS0=   4278 NMatT0=    0 NMatD0=    1 NMtDS0=    0 NMtDT0=    0
 Petite list used in FoFCou.
 CIDS: In Core Option IDoMem=           1.
 CCSD(T)
 =======
 Iterations=  50 Convergence= 0.100D-06
 Produce multiple copies of IABC intergrals
 Iteration Nr.   1
 **********************
 DD1Dir will call FoFMem   1 times, MxPair=        20
 NAB=    10 NAA=     0 NBB=     0.
 MP4(R+Q)=  0.42181371D-02
 Maximum subspace dimension=  5
 A-vector RMS=  3.0577931D-03 Max=  1.3544554D-02 conv= 1.00D-05.
 RLE energy=       -0.2693496907
 E3=       -0.17450728D-02        EUMP3=      -0.76319719209D+02
 E4(DQ)=   -0.92991426D-03        UMP4(DQ)=   -0.76320649124D+02
 E4(SDQ)=  -0.30155035D-02        UMP4(SDQ)=  -0.76322734713D+02
 VARIATIONAL ENERGIES WITH THE FIRST-ORDER WAVEFUNCTION:
 DE(Corr)= -0.26932658     E(Corr)=     -76.315455526    
 NORM(A)=   0.10324985D+01
 Iteration Nr.   2
 **********************
 DD1Dir will call FoFMem   1 times, MxPair=        20
 NAB=    10 NAA=     0 NBB=     0.
 A-vector RMS=  3.4766882D-04 Max=  2.4525190D-03 conv= 1.00D-05.
 RLE energy=       -0.2756530935
 DE(Corr)= -0.27523687     E(CORR)=     -76.321365820     Delta=-5.91D-03
 NORM(A)=   0.10349141D+01
 Iteration Nr.   3
 **********************
 DD1Dir will call FoFMem   1 times, MxPair=        20
 NAB=    10 NAA=     0 NBB=     0.
 A-vector RMS=  4.4932838D-04 Max=  2.5584444D-03 conv= 1.00D-05.
 RLE energy=       -0.2760187846
 DE(Corr)= -0.27558272     E(CORR)=     -76.321711670     Delta=-3.46D-04
 NORM(A)=   0.10354214D+01
 Iteration Nr.   4
 **********************
 DD1Dir will call FoFMem   1 times, MxPair=        20
 NAB=    10 NAA=     0 NBB=     0.
 A-vector RMS=  7.4500322D-05 Max=  4.3822500D-04 conv= 1.00D-05.
 RLE energy=       -0.2760586471
 DE(Corr)= -0.27602455     E(CORR)=     -76.322153503     Delta=-4.42D-04
 NORM(A)=   0.10355574D+01
 Iteration Nr.   5
 **********************
 DD1Dir will call FoFMem   1 times, MxPair=        20
 NAB=    10 NAA=     0 NBB=     0.
 A-vector RMS=  3.7627844D-05 Max=  2.1202228D-04 conv= 1.00D-05.
 RLE energy=       -0.2760741696
 DE(Corr)= -0.27606709     E(CORR)=     -76.322196039     Delta=-4.25D-05
 NORM(A)=   0.10355867D+01
 Iteration Nr.   6
 **********************
 DD1Dir will call FoFMem   1 times, MxPair=        20
 NAB=    10 NAA=     0 NBB=     0.
 A-vector RMS=  9.7523312D-06 Max=  4.2238651D-05 conv= 1.00D-05.
 RLE energy=       -0.2760692846
 DE(Corr)= -0.27607085     E(CORR)=     -76.322199800     Delta=-3.76D-06
 NORM(A)=   0.10355893D+01
 Iteration Nr.   7
 **********************
 DD1Dir will call FoFMem   1 times, MxPair=        20
 NAB=    10 NAA=     0 NBB=     0.
 A-vector RMS=  4.3865178D-06 Max=  2.6379212D-05 conv= 1.00D-05.
 RLE energy=       -0.2760696629
 DE(Corr)= -0.27607096     E(CORR)=     -76.322199911     Delta=-1.11D-07
 NORM(A)=   0.10355902D+01
 Iteration Nr.   8
 **********************
 DD1Dir will call FoFMem   1 times, MxPair=        20
 NAB=    10 NAA=     0 NBB=     0.
 A-vector RMS=  1.6101752D-06 Max=  8.7289481D-06 conv= 1.00D-05.
 RLE energy=       -0.2760703696
 DE(Corr)= -0.27607057     E(CORR)=     -76.322199519     Delta= 3.92D-07
 NORM(A)=   0.10355907D+01
 Iteration Nr.   9
 **********************
 DD1Dir will call FoFMem   1 times, MxPair=        20
 NAB=    10 NAA=     0 NBB=     0.
 A-vector RMS=  5.9365449D-07 Max=  3.3673668D-06 conv= 1.00D-05.
 RLE energy=       -0.2760706025
 DE(Corr)= -0.27607063     E(CORR)=     -76.322199577     Delta=-5.72D-08
 NORM(A)=   0.10355910D+01
 CI/CC converged in    9 iterations to DelEn=-5.72D-08 Conv= 1.00D-07 ErrA1= 5.94D-07 Conv= 1.00D-05
 Wavefunction amplitudes converged. E(Corr)=     -76.322199577    
 Largest amplitude= 2.24D-02
 IPart=  1 IA=    6   11.23% done.
 IPart=  1 IA=   11   21.79% done.
 IPart=  2 IA=   16   31.68% done.
 IPart=  3 IA=   21   40.90% done.
 IPart=  2 IA=   27   51.08% done.
 IPart=  1 IA=   33   60.30% done.
 IPart=  1 IA=   41   71.10% done.
 IPart=  3 IA=   49   80.19% done.
 IPart=  3 IA=   61   90.62% done.
 Time for triples=        5.57 seconds.
 T4(CCSD)= -0.94732922D-02
 T5(CCSD)=  0.36011567D-03
 CCSD(T)= -0.76331312753D+02
 Discarding MO integrals.
 Leave Link  913 at Wed Feb  8 13:58:45 2023, MaxMem=   754974720 cpu:              35.2 elap:              11.8
 (Enter /opt/cluster/programs/g16-c.01/g16/l601.exe)
 Copying SCF densities to generalized density rwf, IOpCl= 0 IROHF=0.

 **********************************************************************

            Population analysis using the SCF Density.

 **********************************************************************

 Orbital symmetries:
       Occupied  (A1) (A1) (B2) (A1) (B1)
       Virtual   (A1) (B2) (A1) (B1) (A1) (B2) (B2) (A1) (A2) (B1)
                 (A1) (B2) (A1) (B2) (B2) (A1) (A2) (A1) (B1) (A1)
                 (B1) (B2) (A1) (A2) (B2) (B1) (A1) (A1) (B2) (B1)
                 (B2) (A2) (A1) (B2) (A2) (B1) (B2) (A1) (A1) (B2)
                 (A1) (B1) (A1) (A2) (B1) (A1) (B2) (A1) (A1) (B1)
                 (B2) (A2) (B2) (B2) (A1) (A2) (B1) (B2) (A1) (B1)
                 (B2) (B1) (A2) (A1) (B2) (A1) (B2) (A2) (A1) (B1)
                 (B2) (A1) (A1) (B2) (B1) (A1) (A2) (B1) (A1) (B1)
                 (A2) (B2) (A1) (B2) (A1) (B2) (A1)
 The electronic state is 1-A1.
 Alpha  occ. eigenvalues --  -20.56735  -1.31859  -0.71493  -0.54553  -0.50074
 Alpha virt. eigenvalues --    0.02946   0.04648   0.13735   0.15869   0.16762
 Alpha virt. eigenvalues --    0.17912   0.22884   0.24010   0.25884   0.31615
 Alpha virt. eigenvalues --    0.32160   0.36260   0.42199   0.45766   0.60889
 Alpha virt. eigenvalues --    0.63558   0.71165   0.71355   0.72388   0.80707
 Alpha virt. eigenvalues --    0.84263   0.89631   0.90144   0.90493   0.92862
 Alpha virt. eigenvalues --    0.94913   0.99497   1.01175   1.02951   1.08235
 Alpha virt. eigenvalues --    1.12540   1.14145   1.14415   1.29410   1.52316
 Alpha virt. eigenvalues --    1.59135   1.62435   1.63533   1.80479   1.98559
 Alpha virt. eigenvalues --    2.07321   2.23834   2.29690   2.31528   2.35761
 Alpha virt. eigenvalues --    2.36834   2.42342   2.48193   2.73304   2.75017
 Alpha virt. eigenvalues --    2.75777   2.82997   2.96549   3.52228   3.71910
 Alpha virt. eigenvalues --    3.98813   4.03422   4.13334   4.17798   4.27051
 Alpha virt. eigenvalues --    4.35448   4.38973   4.39457   4.53143   4.58999
 Alpha virt. eigenvalues --    4.61092   5.00870   5.09552   5.10557   5.33206
 Alpha virt. eigenvalues --    5.37909   5.68117   5.88024   6.61255   6.66810
 Alpha virt. eigenvalues --    6.71315   7.11146   7.14255   7.20483   7.20620
 Alpha virt. eigenvalues --    7.37867   7.44831   7.44941   7.62299   7.94212
 Alpha virt. eigenvalues --    8.45065  14.54325
          Condensed to atoms (all electrons):
               1          2          3
     1  O    7.990626   0.268064   0.268064
     2  H    0.268064   0.445000   0.023560
     3  H    0.268064   0.023560   0.445000
 Mulliken charges:
               1
     1  O   -0.526753
     2  H    0.263376
     3  H    0.263376
 Sum of Mulliken charges =   0.00000
 Mulliken charges with hydrogens summed into heavy atoms:
               1
     1  O    0.000000
 Electronic spatial extent (au):  <R**2>=             20.1875
 Charge=              0.0000 electrons
 Dipole moment (field-independent basis, Debye):
    X=             -0.0000    Y=             -0.0000    Z=             -1.7280  Tot=              1.7280
 Quadrupole moment (field-independent basis, Debye-Ang):
   XX=             -7.7125   YY=             -3.3635   ZZ=             -6.7792
   XY=              0.0000   XZ=              0.0000   YZ=             -0.0000
 Traceless Quadrupole moment (field-independent basis, Debye-Ang):
   XX=             -1.7608   YY=              2.5883   ZZ=             -0.8275
   XY=              0.0000   XZ=              0.0000   YZ=             -0.0000
 Octapole moment (field-independent basis, Debye-Ang**2):
  XXX=              0.0000  YYY=              0.0000  ZZZ=             -0.7749  XYY=             -0.0000
  XXY=             -0.0000  XXZ=             -0.1876  XZZ=              0.0000  YZZ=             -0.0000
  YYZ=             -1.5416  XYZ=             -0.0000
 Hexadecapole moment (field-independent basis, Debye-Ang**3):
 XXXX=             -7.0132 YYYY=             -5.5433 ZZZZ=             -7.5803 XXXY=             -0.0000
 XXXZ=             -0.0000 YYYX=              0.0000 YYYZ=              0.0000 ZZZX=             -0.0000
 ZZZY=              0.0000 XXYY=             -2.6946 XXZZ=             -2.4572 YYZZ=             -2.1148
 XXYZ=              0.0000 YYXZ=              0.0000 ZZXY=             -0.0000
 N-N= 8.693426365107D+00 E-N=-1.979269154641D+02  KE= 7.574207958866D+01
 Symmetry A1   KE= 6.789133140785D+01
 Symmetry A2   KE=-1.094820357247D-19
 Symmetry B1   KE= 4.452359909853D+00
 Symmetry B2   KE= 3.398388270965D+00
 Leave Link  601 at Wed Feb  8 13:58:45 2023, MaxMem=   754974720 cpu:               1.2 elap:               0.6
 (Enter /opt/cluster/programs/g16-c.01/g16/l9999.exe)
 Unable to Open any file for archive entry.
 1\1\GINC-NODE62\SP\RCCSD(T)-FC\Aug-CC-pVTZ\H2O1\BOITTIER\08-Feb-2023\0
 \\#P CCSD(T)/aug-cc-pVTZ scf(maxcycle=200)\\Gaussian input\\0,1\O,0,0.
 ,0.11751,0.\H,0,0.7973622306,-0.5007896629,0.\H,0,-0.9371108881,-0.256
 5276764,0.\\Version=ES64L-G16RevC.01\State=1-A1\HF=-76.0461289\MP2=-76
 .3179741\MP3=-76.3197192\MP4D=-76.3248673\MP4DQ=-76.3206491\MP4SDQ=-76
 .3227347\CCSD=-76.3221996\CCSD(T)=-76.3313128\RMSD=5.385e-09\PG=C02V [
 C2(O1),SGV(H2)]\\@
 The archive entry for this job was punched.


 CONFIDENCE: THAT QUIET ASSURED FEELING YOU HAVE
 JUST BEFORE YOU FALL FLAT ON YOUR FACE.
 Job cpu time:       0 days  0 hours  1 minutes 29.7 seconds.
 Elapsed time:       0 days  0 hours  0 minutes 38.9 seconds.
 File lengths (MBytes):  RWF=     64 Int=      0 D2E=      0 Chk=      2 Scr=      1
 Normal termination of Gaussian 16 at Wed Feb  8 13:58:45 2023.
