 Entering Gaussian System, Link 0=/opt/cluster/programs/g16-c.01/g16/g16
 Input=/scratch/boittier/jobs/tmp.7262192/gaussian_56_water_ccsdt_adz.com
 Output=/scratch/boittier/jobs/tmp.7262192/gaussian_56_water_ccsdt_adz.out
 Initial command:
 /opt/cluster/programs/g16-c.01/g16/l1.exe "/scratch/boittier/jobs/tmp.7262192/Gau-174635.inp" -scrdir="/scratch/boittier/jobs/tmp.7262192/"
 Entering Link 1 = /opt/cluster/programs/g16-c.01/g16/l1.exe PID=    174636.
  
 Copyright (c) 1988-2019, Gaussian, Inc.  All Rights Reserved.
  
 This is part of the Gaussian(R) 16 program.  It is based on
 the Gaussian(R) 09 system (copyright 2009, Gaussian, Inc.),
 the Gaussian(R) 03 system (copyright 2003, Gaussian, Inc.),
 the Gaussian(R) 98 system (copyright 1998, Gaussian, Inc.),
 the Gaussian(R) 94 system (copyright 1995, Gaussian, Inc.),
 the Gaussian 92(TM) system (copyright 1992, Gaussian, Inc.),
 the Gaussian 90(TM) system (copyright 1990, Gaussian, Inc.),
 the Gaussian 88(TM) system (copyright 1988, Gaussian, Inc.),
 the Gaussian 86(TM) system (copyright 1986, Carnegie Mellon
 University), and the Gaussian 82(TM) system (copyright 1983,
 Carnegie Mellon University). Gaussian is a federally registered
 trademark of Gaussian, Inc.
  
 This software contains proprietary and confidential information,
 including trade secrets, belonging to Gaussian, Inc.
  
 This software is provided under written license and may be
 used, copied, transmitted, or stored only in accord with that
 written license.
  
 The following legend is applicable only to US Government
 contracts under FAR:
  
                    RESTRICTED RIGHTS LEGEND
  
 Use, reproduction and disclosure by the US Government is
 subject to restrictions as set forth in subparagraphs (a)
 and (c) of the Commercial Computer Software - Restricted
 Rights clause in FAR 52.227-19.
  
 Gaussian, Inc.
 340 Quinnipiac St., Bldg. 40, Wallingford CT 06492
  
  
 ---------------------------------------------------------------
 Warning -- This program may not be used in any manner that
 competes with the business of Gaussian, Inc. or will provide
 assistance to any competitor of Gaussian, Inc.  The licensee
 of this program is prohibited from giving any competitor of
 Gaussian, Inc. access to this program.  By using this program,
 the user acknowledges that Gaussian, Inc. is engaged in the
 business of creating and licensing software in the field of
 computational chemistry and represents and warrants to the
 licensee that it is not a competitor of Gaussian, Inc. and that
 it will not use this program in any manner prohibited above.
 ---------------------------------------------------------------
  

 Cite this work as:
 Gaussian 16, Revision C.01,
 M. J. Frisch, G. W. Trucks, H. B. Schlegel, G. E. Scuseria, 
 M. A. Robb, J. R. Cheeseman, G. Scalmani, V. Barone, 
 G. A. Petersson, H. Nakatsuji, X. Li, M. Caricato, A. V. Marenich, 
 J. Bloino, B. G. Janesko, R. Gomperts, B. Mennucci, H. P. Hratchian, 
 J. V. Ortiz, A. F. Izmaylov, J. L. Sonnenberg, D. Williams-Young, 
 F. Ding, F. Lipparini, F. Egidi, J. Goings, B. Peng, A. Petrone, 
 T. Henderson, D. Ranasinghe, V. G. Zakrzewski, J. Gao, N. Rega, 
 G. Zheng, W. Liang, M. Hada, M. Ehara, K. Toyota, R. Fukuda, 
 J. Hasegawa, M. Ishida, T. Nakajima, Y. Honda, O. Kitao, H. Nakai, 
 T. Vreven, K. Throssell, J. A. Montgomery, Jr., J. E. Peralta, 
 F. Ogliaro, M. J. Bearpark, J. J. Heyd, E. N. Brothers, K. N. Kudin, 
 V. N. Staroverov, T. A. Keith, R. Kobayashi, J. Normand, 
 K. Raghavachari, A. P. Rendell, J. C. Burant, S. S. Iyengar, 
 J. Tomasi, M. Cossi, J. M. Millam, M. Klene, C. Adamo, R. Cammi, 
 J. W. Ochterski, R. L. Martin, K. Morokuma, O. Farkas, 
 J. B. Foresman, and D. J. Fox, Gaussian, Inc., Wallingford CT, 2019.
 
 ******************************************
 Gaussian 16:  ES64L-G16RevC.01  3-Jul-2019
                 8-Feb-2023 
 ******************************************
 %nproc=4
 Will use up to    4 processors via shared memory.
 %mem=5760MB
 %chk=gaussian_56_water_ccsdt_adz.chk
 ----------------------------------------
 #P CCSD(T)/aug-cc-pVDZ scf(maxcycle=200)
 ----------------------------------------
 1/38=1,172=1/1;
 2/12=2,17=6,18=5,40=1/2;
 3/5=16,7=10,11=9,25=1,30=1/1,2,3;
 4//1;
 5/5=2,7=200,38=5/2;
 8/6=4,9=120000,10=1/1,4;
 9/5=7,14=2/13;
 6/7=2,8=2,9=2,10=2/1;
 99/5=1,9=1/99;
 Leave Link    1 at Wed Feb  8 14:48:12 2023, MaxMem=   754974720 cpu:               0.1 elap:               0.0
 (Enter /opt/cluster/programs/g16-c.01/g16/l101.exe)
 --------------
 Gaussian input
 --------------
 Symbolic Z-matrix:
 Charge =  0 Multiplicity = 1
 O                     0.        0.11751   0. 
 H                     0.71834  -0.43951   0. 
 H                    -0.90874  -0.32099   0. 
 
 ITRead=  0  0  0
 MicOpt= -1 -1 -1
 NAtoms=      3 NQM=        3 NQMF=       0 NMMI=      0 NMMIF=      0
                NMic=       0 NMicF=      0.
                    Isotopes and Nuclear Properties:
 (Nuclear quadrupole moments (NQMom) in fm**2, nuclear magnetic moments (NMagM)
  in nuclear magnetons)

  Atom         1           2           3
 IAtWgt=          16           1           1
 AtmWgt=  15.9949146   1.0078250   1.0078250
 NucSpn=           0           1           1
 AtZEff=  -0.0000000  -0.0000000  -0.0000000
 NQMom=    0.0000000   0.0000000   0.0000000
 NMagM=    0.0000000   2.7928460   2.7928460
 AtZNuc=   8.0000000   1.0000000   1.0000000
 Leave Link  101 at Wed Feb  8 14:48:13 2023, MaxMem=   754974720 cpu:               0.6 elap:               0.2
 (Enter /opt/cluster/programs/g16-c.01/g16/l202.exe)
                          Input orientation:                          
 ---------------------------------------------------------------------
 Center     Atomic      Atomic             Coordinates (Angstroms)
 Number     Number       Type             X           Y           Z
 ---------------------------------------------------------------------
      1          8           0        0.000000    0.117510    0.000000
      2          1           0        0.718337   -0.439511    0.000000
      3          1           0       -0.908737   -0.320986    0.000000
 ---------------------------------------------------------------------
                    Distance matrix (angstroms):
                    1          2          3
     1  O    0.000000
     2  H    0.909000   0.000000
     3  H    1.009000   1.631385   0.000000
 Stoichiometry    H2O
 Framework group  CS[SG(H2O)]
 Deg. of freedom     3
 Full point group                 CS      NOp   2
 Largest Abelian subgroup         CS      NOp   2
 Largest concise Abelian subgroup C1      NOp   1
                         Standard orientation:                         
 ---------------------------------------------------------------------
 Center     Atomic      Atomic             Coordinates (Angstroms)
 Number     Number       Type             X           Y           Z
 ---------------------------------------------------------------------
      1          8           0        0.000000    0.101356    0.000000
      2          1           0        0.810186   -0.310808    0.000000
      3          1           0       -0.810186   -0.500041    0.000000
 ---------------------------------------------------------------------
 Rotational constants (GHZ):        1122.0085721         374.2341109         280.6322030
 Leave Link  202 at Wed Feb  8 14:48:13 2023, MaxMem=   754974720 cpu:               0.1 elap:               0.0
 (Enter /opt/cluster/programs/g16-c.01/g16/l301.exe)
 Standard basis: Aug-CC-pVDZ (5D, 7F)
 Ernie: Thresh=  0.10000D-02 Tol=  0.10000D-05 Strict=F.
 Ernie:  2 primitive shells out of 39 were deleted.
 There are    32 symmetry adapted cartesian basis functions of A'  symmetry.
 There are    11 symmetry adapted cartesian basis functions of A"  symmetry.
 There are    30 symmetry adapted basis functions of A'  symmetry.
 There are    11 symmetry adapted basis functions of A"  symmetry.
    41 basis functions,    65 primitive gaussians,    43 cartesian basis functions
     5 alpha electrons        5 beta electrons
       nuclear repulsion energy         9.1772549095 Hartrees.
 IExCor=    0 DFT=F Ex=HF Corr=None ExCW=0 ScaHFX=  1.000000
 ScaDFX=  1.000000  1.000000  1.000000  1.000000 ScalE2=  1.000000  1.000000
 IRadAn=      5 IRanWt=     -1 IRanGd=            0 ICorTp=0 IEmpDi=  4
 NAtoms=    3 NActive=    3 NUniq=    3 SFac= 1.00D+00 NAtFMM=   60 NAOKFM=F Big=F
 Integral buffers will be    131072 words long.
 Raffenetti 1 integral format.
 Two-electron integral symmetry is turned on.
 Leave Link  301 at Wed Feb  8 14:48:13 2023, MaxMem=   754974720 cpu:               0.2 elap:               0.1
 (Enter /opt/cluster/programs/g16-c.01/g16/l302.exe)
 NPDir=0 NMtPBC=     1 NCelOv=     1 NCel=       1 NClECP=     1 NCelD=      1
         NCelK=      1 NCelE2=     1 NClLst=     1 CellRange=     0.0.
 One-electron integrals computed using PRISM.
 One-electron integral symmetry used in STVInt
 NBasis=    41 RedAO= T EigKep=  2.75D-03  NBF=    30    11
 NBsUse=    41 1.00D-06 EigRej= -1.00D+00 NBFU=    30    11
 Leave Link  302 at Wed Feb  8 14:48:13 2023, MaxMem=   754974720 cpu:               0.4 elap:               0.1
 (Enter /opt/cluster/programs/g16-c.01/g16/l303.exe)
 DipDrv:  MaxL=1.
 Leave Link  303 at Wed Feb  8 14:48:13 2023, MaxMem=   754974720 cpu:               0.2 elap:               0.1
 (Enter /opt/cluster/programs/g16-c.01/g16/l401.exe)
 ExpMin= 2.97D-02 ExpMax= 1.17D+04 ExpMxC= 4.01D+02 IAcc=3 IRadAn=         5 AccDes= 0.00D+00
 Harris functional with IExCor=  205 and IRadAn=       5 diagonalized for initial guess.
 HarFok:  IExCor=  205 AccDes= 0.00D+00 IRadAn=         5 IDoV= 1 UseB2=F ITyADJ=14
 ICtDFT=  3500011 ScaDFX=  1.000000  1.000000  1.000000  1.000000
 FoFCou: FMM=F IPFlag=           0 FMFlag=      100000 FMFlg1=           0
         NFxFlg=           0 DoJE=T BraDBF=F KetDBF=T FulRan=T
         wScrn=  0.000000 ICntrl=       500 IOpCl=  0 I1Cent=   200000004 NGrid=           0
         NMat0=    1 NMatS0=      1 NMatT0=    0 NMatD0=    1 NMtDS0=    0 NMtDT0=    0
 Petite list used in FoFCou.
 Harris En= -76.1201792892351    
 JPrj=0 DoOrth=F DoCkMO=F.
 Initial guess orbital symmetries:
       Occupied  (A') (A') (A') (A') (A")
       Virtual   (A') (A') (A') (A") (A') (A') (A') (A') (A") (A')
                 (A") (A') (A') (A') (A') (A') (A") (A') (A") (A')
                 (A") (A') (A') (A') (A") (A") (A') (A') (A') (A')
                 (A') (A") (A') (A") (A') (A')
 The electronic state of the initial guess is 1-A'.
 Leave Link  401 at Wed Feb  8 14:48:13 2023, MaxMem=   754974720 cpu:               0.6 elap:               0.2
 (Enter /opt/cluster/programs/g16-c.01/g16/l502.exe)
 Keep R1 ints in memory in symmetry-blocked form, NReq=1210682.
 FoFCou: FMM=F IPFlag=           0 FMFlag=           0 FMFlg1=           0
         NFxFlg=           0 DoJE=F BraDBF=F KetDBF=F FulRan=T
         wScrn=  0.000000 ICntrl=       600 IOpCl=  0 I1Cent=           0 NGrid=           0
         NMat0=    1 NMatS0=    861 NMatT0=    0 NMatD0=    1 NMtDS0=    0 NMtDT0=    0
 Petite list used in FoFCou.
 Closed shell SCF:
 Using DIIS extrapolation, IDIIS=  1040.
 NGot=   754974720 LenX=   754771907 LenY=   754769617
 Requested convergence on RMS density matrix=1.00D-08 within 200 cycles.
 Requested convergence on MAX density matrix=1.00D-06.
 Requested convergence on             energy=1.00D-06.
 No special actions if energy rises.

 Cycle   1  Pass 1  IDiag  1:
 E= -75.9539362056978    
 DIIS: error= 5.19D-02 at cycle   1 NSaved=   1.
 NSaved= 1 IEnMin= 1 EnMin= -75.9539362056978     IErMin= 1 ErrMin= 5.19D-02
 ErrMax= 5.19D-02  0.00D+00 EMaxC= 1.00D-01 BMatC= 1.21D-01 BMatP= 1.21D-01
 IDIUse=3 WtCom= 4.81D-01 WtEn= 5.19D-01
 Coeff-Com:  0.100D+01
 Coeff-En:   0.100D+01
 Coeff:      0.100D+01
 Gap=     0.456 Goal=   None    Shift=    0.000
 GapD=    0.456 DampG=2.000 DampE=0.500 DampFc=1.0000 IDamp=-1.
 RMSDP=6.37D-03 MaxDP=1.20D-01              OVMax= 1.21D-01

 Cycle   2  Pass 1  IDiag  1:
 E= -76.0002177365218     Delta-E=       -0.046281530824 Rises=F Damp=F
 DIIS: error= 4.02D-02 at cycle   2 NSaved=   2.
 NSaved= 2 IEnMin= 2 EnMin= -76.0002177365218     IErMin= 2 ErrMin= 4.02D-02
 ErrMax= 4.02D-02  0.00D+00 EMaxC= 1.00D-01 BMatC= 4.67D-02 BMatP= 1.21D-01
 IDIUse=3 WtCom= 5.98D-01 WtEn= 4.02D-01
 Coeff-Com:  0.373D+00 0.627D+00
 Coeff-En:   0.208D+00 0.792D+00
 Coeff:      0.307D+00 0.693D+00
 Gap=     0.560 Goal=   None    Shift=    0.000
 RMSDP=2.96D-03 MaxDP=5.52D-02 DE=-4.63D-02 OVMax= 5.97D-02

 Cycle   3  Pass 1  IDiag  1:
 E= -76.0322486928810     Delta-E=       -0.032030956359 Rises=F Damp=F
 DIIS: error= 4.87D-03 at cycle   3 NSaved=   3.
 NSaved= 3 IEnMin= 3 EnMin= -76.0322486928810     IErMin= 3 ErrMin= 4.87D-03
 ErrMax= 4.87D-03  0.00D+00 EMaxC= 1.00D-01 BMatC= 1.20D-03 BMatP= 4.67D-02
 IDIUse=3 WtCom= 9.51D-01 WtEn= 4.87D-02
 Coeff-Com: -0.372D-01 0.941D-01 0.943D+00
 Coeff-En:   0.000D+00 0.000D+00 0.100D+01
 Coeff:     -0.354D-01 0.895D-01 0.946D+00
 Gap=     0.540 Goal=   None    Shift=    0.000
 RMSDP=4.80D-04 MaxDP=8.36D-03 DE=-3.20D-02 OVMax= 9.09D-03

 Cycle   4  Pass 1  IDiag  1:
 E= -76.0331555100696     Delta-E=       -0.000906817189 Rises=F Damp=F
 DIIS: error= 6.03D-04 at cycle   4 NSaved=   4.
 NSaved= 4 IEnMin= 4 EnMin= -76.0331555100696     IErMin= 4 ErrMin= 6.03D-04
 ErrMax= 6.03D-04  0.00D+00 EMaxC= 1.00D-01 BMatC= 7.80D-06 BMatP= 1.20D-03
 IDIUse=3 WtCom= 9.94D-01 WtEn= 6.03D-03
 Coeff-Com:  0.851D-02-0.435D-01-0.323D+00 0.136D+01
 Coeff-En:   0.000D+00 0.000D+00 0.000D+00 0.100D+01
 Coeff:      0.846D-02-0.432D-01-0.321D+00 0.136D+01
 Gap=     0.541 Goal=   None    Shift=    0.000
 RMSDP=1.19D-04 MaxDP=1.18D-03 DE=-9.07D-04 OVMax= 2.51D-03

 Cycle   5  Pass 1  IDiag  1:
 E= -76.0331751815477     Delta-E=       -0.000019671478 Rises=F Damp=F
 DIIS: error= 1.65D-04 at cycle   5 NSaved=   5.
 NSaved= 5 IEnMin= 5 EnMin= -76.0331751815477     IErMin= 5 ErrMin= 1.65D-04
 ErrMax= 1.65D-04  0.00D+00 EMaxC= 1.00D-01 BMatC= 3.73D-07 BMatP= 7.80D-06
 IDIUse=3 WtCom= 9.98D-01 WtEn= 1.65D-03
 Coeff-Com:  0.272D-03 0.239D-02 0.136D-01-0.259D+00 0.124D+01
 Coeff-En:   0.000D+00 0.000D+00 0.000D+00 0.000D+00 0.100D+01
 Coeff:      0.272D-03 0.238D-02 0.136D-01-0.259D+00 0.124D+01
 Gap=     0.542 Goal=   None    Shift=    0.000
 RMSDP=3.01D-05 MaxDP=3.70D-04 DE=-1.97D-05 OVMax= 7.02D-04

 Cycle   6  Pass 1  IDiag  1:
 E= -76.0331763536051     Delta-E=       -0.000001172057 Rises=F Damp=F
 DIIS: error= 3.39D-05 at cycle   6 NSaved=   6.
 NSaved= 6 IEnMin= 6 EnMin= -76.0331763536051     IErMin= 6 ErrMin= 3.39D-05
 ErrMax= 3.39D-05  0.00D+00 EMaxC= 1.00D-01 BMatC= 1.60D-08 BMatP= 3.73D-07
 IDIUse=1 WtCom= 1.00D+00 WtEn= 0.00D+00
 Coeff-Com: -0.429D-03 0.165D-02 0.133D-01-0.254D-01-0.227D+00 0.124D+01
 Coeff:     -0.429D-03 0.165D-02 0.133D-01-0.254D-01-0.227D+00 0.124D+01
 Gap=     0.542 Goal=   None    Shift=    0.000
 RMSDP=5.87D-06 MaxDP=9.46D-05 DE=-1.17D-06 OVMax= 1.65D-04

 Cycle   7  Pass 1  IDiag  1:
 E= -76.0331764065873     Delta-E=       -0.000000052982 Rises=F Damp=F
 DIIS: error= 7.74D-06 at cycle   7 NSaved=   7.
 NSaved= 7 IEnMin= 7 EnMin= -76.0331764065873     IErMin= 7 ErrMin= 7.74D-06
 ErrMax= 7.74D-06  0.00D+00 EMaxC= 1.00D-01 BMatC= 8.45D-10 BMatP= 1.60D-08
 IDIUse=1 WtCom= 1.00D+00 WtEn= 0.00D+00
 Coeff-Com:  0.151D-03-0.755D-03-0.600D-02 0.251D-01 0.158D-01-0.428D+00
 Coeff-Com:  0.139D+01
 Coeff:      0.151D-03-0.755D-03-0.600D-02 0.251D-01 0.158D-01-0.428D+00
 Coeff:      0.139D+01
 Gap=     0.542 Goal=   None    Shift=    0.000
 RMSDP=1.19D-06 MaxDP=2.36D-05 DE=-5.30D-08 OVMax= 3.55D-05

 Cycle   8  Pass 1  IDiag  1:
 E= -76.0331764089537     Delta-E=       -0.000000002366 Rises=F Damp=F
 DIIS: error= 9.97D-07 at cycle   8 NSaved=   8.
 NSaved= 8 IEnMin= 8 EnMin= -76.0331764089537     IErMin= 8 ErrMin= 9.97D-07
 ErrMax= 9.97D-07  0.00D+00 EMaxC= 1.00D-01 BMatC= 2.36D-11 BMatP= 8.45D-10
 IDIUse=1 WtCom= 1.00D+00 WtEn= 0.00D+00
 Coeff-Com: -0.105D-04 0.700D-04 0.619D-03-0.398D-02 0.651D-02 0.390D-01
 Coeff-Com: -0.290D+00 0.125D+01
 Coeff:     -0.105D-04 0.700D-04 0.619D-03-0.398D-02 0.651D-02 0.390D-01
 Coeff:     -0.290D+00 0.125D+01
 Gap=     0.542 Goal=   None    Shift=    0.000
 RMSDP=2.12D-07 MaxDP=3.10D-06 DE=-2.37D-09 OVMax= 4.49D-06

 Cycle   9  Pass 1  IDiag  1:
 E= -76.0331764090100     Delta-E=       -0.000000000056 Rises=F Damp=F
 DIIS: error= 1.45D-07 at cycle   9 NSaved=   9.
 NSaved= 9 IEnMin= 9 EnMin= -76.0331764090100     IErMin= 9 ErrMin= 1.45D-07
 ErrMax= 1.45D-07  0.00D+00 EMaxC= 1.00D-01 BMatC= 5.06D-13 BMatP= 2.36D-11
 IDIUse=1 WtCom= 1.00D+00 WtEn= 0.00D+00
 Coeff-Com: -0.538D-05 0.266D-04 0.208D-03-0.797D-03-0.962D-03 0.141D-01
 Coeff-Com: -0.354D-01-0.678D-01 0.109D+01
 Coeff:     -0.538D-05 0.266D-04 0.208D-03-0.797D-03-0.962D-03 0.141D-01
 Coeff:     -0.354D-01-0.678D-01 0.109D+01
 Gap=     0.542 Goal=   None    Shift=    0.000
 RMSDP=3.65D-08 MaxDP=3.80D-07 DE=-5.64D-11 OVMax= 5.46D-07

 Cycle  10  Pass 1  IDiag  1:
 E= -76.0331764090110     Delta-E=       -0.000000000001 Rises=F Damp=F
 DIIS: error= 3.39D-08 at cycle  10 NSaved=  10.
 NSaved=10 IEnMin=10 EnMin= -76.0331764090110     IErMin=10 ErrMin= 3.39D-08
 ErrMax= 3.39D-08  0.00D+00 EMaxC= 1.00D-01 BMatC= 2.36D-14 BMatP= 5.06D-13
 IDIUse=1 WtCom= 1.00D+00 WtEn= 0.00D+00
 Coeff-Com:  0.148D-05-0.776D-05-0.626D-04 0.282D-03 0.123D-03-0.444D-02
 Coeff-Com:  0.161D-01-0.131D-01-0.325D+00 0.133D+01
 Coeff:      0.148D-05-0.776D-05-0.626D-04 0.282D-03 0.123D-03-0.444D-02
 Coeff:      0.161D-01-0.131D-01-0.325D+00 0.133D+01
 Gap=     0.542 Goal=   None    Shift=    0.000
 RMSDP=7.90D-09 MaxDP=7.74D-08 DE=-9.95D-13 OVMax= 1.27D-07

 SCF Done:  E(RHF) =  -76.0331764090     A.U. after   10 cycles
            NFock= 10  Conv=0.79D-08     -V/T= 2.0015
 KE= 7.592133240471D+01 PE=-1.988846480532D+02 EE= 3.775288433003D+01
 Leave Link  502 at Wed Feb  8 14:48:13 2023, MaxMem=   754974720 cpu:               0.6 elap:               0.2
 (Enter /opt/cluster/programs/g16-c.01/g16/l801.exe)
 Windowed orbitals will be sorted by symmetry type.
 ExpMin= 2.97D-02 ExpMax= 1.17D+04 ExpMxC= 4.01D+02 IAcc=3 IRadAn=         5 AccDes= 0.00D+00
 HarFok:  IExCor=  205 AccDes= 0.00D+00 IRadAn=         5 IDoV=-2 UseB2=F ITyADJ=14
 ICtDFT= 12500011 ScaDFX=  1.000000  1.000000  1.000000  1.000000
 Largest valence mixing into a core orbital is  6.05D-05
 Largest core mixing into a valence orbital is  1.76D-05
 Range of M.O.s used for correlation:     2    41
 NBasis=    41 NAE=     5 NBE=     5 NFC=     1 NFV=     0
 NROrb=     40 NOA=     4 NOB=     4 NVA=    36 NVB=    36
 Leave Link  801 at Wed Feb  8 14:48:13 2023, MaxMem=   754974720 cpu:               0.2 elap:               0.1
 (Enter /opt/cluster/programs/g16-c.01/g16/l804.exe)
 Closed-shell transformation, MDV=   754974720 ITran=4 ISComp=2.
 Unit  1 TFree=         57024 TCopy=        242858.
 Semi-Direct transformation.
 ModeAB=           2 MOrb=             4 LenV=     754769647
 LASXX=        60334 LTotXX=       60334 LenRXX=       60334
 LTotAB=       65632 MaxLAS=      151360 LenRXY=      151360
 NonZer=      159520 LenScr=      785920 LnRSAI=           0
 LnScr1=           0 LExtra=           0 Total=       997614
 MaxDsk=          -1 SrtSym=           F ITran=            4
 DoSDTr:  NPSUse=  4
 JobTyp=0 Pass  1:  I=   1 to   4.
 (rs|ai) integrals will be sorted in core.
 Complete sort for first half transformation.
 First half transformation complete.
 Complete sort for second half transformation.
 Second half transformation complete.
 Spin components of T(2) and E(2):
     alpha-alpha T2 =       0.7697719795D-02 E2=     -0.2788346811D-01
     alpha-beta  T2 =       0.4356197354D-01 E2=     -0.1632881618D+00
     beta-beta   T2 =       0.7697719795D-02 E2=     -0.2788346811D-01
 ANorm=    0.1029056565D+01
 E2 =    -0.2190550980D+00 EUMP2 =    -0.76252231507047D+02
 Leave Link  804 at Wed Feb  8 14:48:13 2023, MaxMem=   754974720 cpu:               0.4 elap:               0.1
 (Enter /opt/cluster/programs/g16-c.01/g16/l913.exe)
 CIDS:  MDV=   754974720.
 Frozen-core window:  NFC=   1 NFV=   0.
 IFCWin=0 IBDFC=1 NFBD=     0     0 NFCmp=     0     0 NFFFC=     0     0
 Using DD3R+UMP44R for 1st iteration.
 Using DD4RQ for 2nd and later iterations.
 Keep R2 and R3 ints in memory in symmetry-blocked form, NReq=1234051.
 FoFCou: FMM=F IPFlag=           0 FMFlag=           0 FMFlg1=           0
         NFxFlg=           0 DoJE=F BraDBF=F KetDBF=F FulRan=T
         wScrn=  0.000000 ICntrl=       600 IOpCl=  0 I1Cent=           0 NGrid=           0
         NMat0=    1 NMatS0=    861 NMatT0=    0 NMatD0=    1 NMtDS0=    0 NMtDT0=    0
 Petite list used in FoFCou.
 CIDS: In Core Option IDoMem=           1.
 CCSD(T)
 =======
 Iterations=  50 Convergence= 0.100D-06
 Produce multiple copies of IABC intergrals
 Iteration Nr.   1
 **********************
 DD1Dir will call FoFMem   1 times, MxPair=        20
 NAB=    10 NAA=     0 NBB=     0.
 MP4(R+Q)=  0.24701135D-02
 Maximum subspace dimension=  5
 A-vector RMS=  5.4145983D-03 Max=  1.7135387D-02 conv= 1.00D-05.
 RLE energy=       -0.2213306135
 E3=       -0.48159745D-02        EUMP3=      -0.76257047482D+02
 E4(DQ)=   -0.14834938D-02        UMP4(DQ)=   -0.76258530975D+02
 E4(SDQ)=  -0.31996866D-02        UMP4(SDQ)=  -0.76260247168D+02
 VARIATIONAL ENERGIES WITH THE FIRST-ORDER WAVEFUNCTION:
 DE(Corr)= -0.22130726     E(Corr)=     -76.254483668    
 NORM(A)=   0.10301082D+01
 Iteration Nr.   2
 **********************
 DD1Dir will call FoFMem   1 times, MxPair=        20
 NAB=    10 NAA=     0 NBB=     0.
 A-vector RMS=  6.4611583D-04 Max=  3.0498575D-03 conv= 1.00D-05.
 RLE energy=       -0.2264516476
 DE(Corr)= -0.22584574     E(CORR)=     -76.259022145     Delta=-4.54D-03
 NORM(A)=   0.10322993D+01
 Iteration Nr.   3
 **********************
 DD1Dir will call FoFMem   1 times, MxPair=        20
 NAB=    10 NAA=     0 NBB=     0.
 A-vector RMS=  7.5169954D-04 Max=  2.8961667D-03 conv= 1.00D-05.
 RLE energy=       -0.2268269037
 DE(Corr)= -0.22640579     E(CORR)=     -76.259582197     Delta=-5.60D-04
 NORM(A)=   0.10328204D+01
 Iteration Nr.   4
 **********************
 DD1Dir will call FoFMem   1 times, MxPair=        20
 NAB=    10 NAA=     0 NBB=     0.
 A-vector RMS=  9.1846623D-05 Max=  3.7324994D-04 conv= 1.00D-05.
 RLE energy=       -0.2268634790
 DE(Corr)= -0.22683377     E(CORR)=     -76.260010175     Delta=-4.28D-04
 NORM(A)=   0.10329341D+01
 Iteration Nr.   5
 **********************
 DD1Dir will call FoFMem   1 times, MxPair=        20
 NAB=    10 NAA=     0 NBB=     0.
 A-vector RMS=  4.0047251D-05 Max=  1.6140262D-04 conv= 1.00D-05.
 RLE energy=       -0.2268690563
 DE(Corr)= -0.22686546     E(CORR)=     -76.260041867     Delta=-3.17D-05
 NORM(A)=   0.10329526D+01
 Iteration Nr.   6
 **********************
 DD1Dir will call FoFMem   1 times, MxPair=        20
 NAB=    10 NAA=     0 NBB=     0.
 A-vector RMS=  1.0806207D-05 Max=  3.9003861D-05 conv= 1.00D-05.
 RLE energy=       -0.2268663203
 DE(Corr)= -0.22686761     E(CORR)=     -76.260044017     Delta=-2.15D-06
 NORM(A)=   0.10329546D+01
 Iteration Nr.   7
 **********************
 DD1Dir will call FoFMem   1 times, MxPair=        20
 NAB=    10 NAA=     0 NBB=     0.
 A-vector RMS=  4.5743498D-06 Max=  1.6698995D-05 conv= 1.00D-05.
 RLE energy=       -0.2268669191
 DE(Corr)= -0.22686762     E(CORR)=     -76.260044029     Delta=-1.21D-08
 NORM(A)=   0.10329553D+01
 Iteration Nr.   8
 **********************
 DD1Dir will call FoFMem   1 times, MxPair=        20
 NAB=    10 NAA=     0 NBB=     0.
 A-vector RMS=  1.5511263D-06 Max=  5.2643521D-06 conv= 1.00D-05.
 RLE energy=       -0.2268671640
 DE(Corr)= -0.22686727     E(CORR)=     -76.260043676     Delta= 3.53D-07
 NORM(A)=   0.10329557D+01
 Iteration Nr.   9
 **********************
 DD1Dir will call FoFMem   1 times, MxPair=        20
 NAB=    10 NAA=     0 NBB=     0.
 A-vector RMS=  5.2087086D-07 Max=  2.0141239D-06 conv= 1.00D-05.
 RLE energy=       -0.2268674213
 DE(Corr)= -0.22686743     E(CORR)=     -76.260043835     Delta=-1.59D-07
 NORM(A)=   0.10329559D+01
 Iteration Nr.  10
 **********************
 DD1Dir will call FoFMem   1 times, MxPair=        20
 NAB=    10 NAA=     0 NBB=     0.
 A-vector RMS=  2.3112823D-07 Max=  8.1460091D-07 conv= 1.00D-05.
 RLE energy=       -0.2268674618
 DE(Corr)= -0.22686744     E(CORR)=     -76.260043845     Delta=-9.70D-09
 NORM(A)=   0.10329559D+01
 CI/CC converged in   10 iterations to DelEn=-9.70D-09 Conv= 1.00D-07 ErrA1= 2.31D-07 Conv= 1.00D-05
 Wavefunction amplitudes converged. E(Corr)=     -76.260043845    
 Largest amplitude= 3.41D-02
 IPart=  2 IA=    3   10.95% done.
 IPart=  1 IA=    5   21.27% done.
 IPart=  4 IA=    7   30.95% done.
 IPart=  3 IA=    9   40.00% done.
 IPart=  1 IA=   12   52.38% done.
 IPart=  2 IA=   15   63.33% done.
 IPart=  2 IA=   18   72.86% done.
 IPart=  1 IA=   21   80.95% done.
 IPart=  2 IA=   26   91.27% done.
 Time for triples=        0.40 seconds.
 T4(CCSD)= -0.55954868D-02
 T5(CCSD)=  0.40671795D-03
 CCSD(T)= -0.76265232614D+02
 Discarding MO integrals.
 Leave Link  913 at Wed Feb  8 14:48:14 2023, MaxMem=   754974720 cpu:               1.3 elap:               0.3
 (Enter /opt/cluster/programs/g16-c.01/g16/l601.exe)
 Copying SCF densities to generalized density rwf, IOpCl= 0 IROHF=0.

 **********************************************************************

            Population analysis using the SCF Density.

 **********************************************************************

 Orbital symmetries:
       Occupied  (A') (A') (A') (A') (A")
       Virtual   (A') (A') (A') (A") (A') (A') (A') (A') (A") (A')
                 (A") (A') (A') (A') (A') (A') (A") (A') (A") (A')
                 (A') (A") (A') (A') (A") (A") (A') (A') (A') (A')
                 (A') (A") (A') (A") (A') (A')
 The electronic state is 1-A'.
 Alpha  occ. eigenvalues --  -20.57111  -1.35002  -0.74017  -0.56163  -0.50584
 Alpha virt. eigenvalues --    0.03609   0.05689   0.17522   0.19529   0.21793
 Alpha virt. eigenvalues --    0.22786   0.29428   0.31885   0.37857   0.42866
 Alpha virt. eigenvalues --    0.45313   0.52673   0.63895   0.66319   0.83979
 Alpha virt. eigenvalues --    0.89779   1.08578   1.09319   1.14857   1.38671
 Alpha virt. eigenvalues --    1.46735   1.49668   1.58870   1.98023   2.02843
 Alpha virt. eigenvalues --    2.09693   2.40113   2.46138   2.64237   2.77721
 Alpha virt. eigenvalues --    2.87200   3.65976   3.67160   3.71081   4.09611
 Alpha virt. eigenvalues --    4.30908
          Condensed to atoms (all electrons):
               1          2          3
     1  O    7.647395   0.358310   0.327386
     2  H    0.358310   0.581567  -0.046638
     3  H    0.327386  -0.046638   0.492921
 Mulliken charges:
               1
     1  O   -0.333091
     2  H    0.106761
     3  H    0.226330
 Sum of Mulliken charges =  -0.00000
 Mulliken charges with hydrogens summed into heavy atoms:
               1
     1  O   -0.000000
 Electronic spatial extent (au):  <R**2>=             19.5915
 Charge=             -0.0000 electrons
 Dipole moment (field-independent basis, Debye):
    X=              0.0299    Y=             -1.7971    Z=              0.0000  Tot=              1.7974
 Quadrupole moment (field-independent basis, Debye-Ang):
   XX=             -3.7911   YY=             -6.5779   ZZ=             -7.6169
   XY=              0.3770   XZ=              0.0000   YZ=              0.0000
 Traceless Quadrupole moment (field-independent basis, Debye-Ang):
   XX=              2.2042   YY=             -0.5826   ZZ=             -1.6216
   XY=              0.3770   XZ=              0.0000   YZ=              0.0000
 Octapole moment (field-independent basis, Debye-Ang**2):
  XXX=              0.1057  YYY=             -1.0192  ZZZ=              0.0000  XYY=             -0.2129
  XXY=             -1.3792  XXZ=              0.0000  XZZ=              0.0609  YZZ=             -0.2604
  YYZ=              0.0000  XYZ=              0.0000
 Hexadecapole moment (field-independent basis, Debye-Ang**3):
 XXXX=             -5.5959 YYYY=             -7.3601 ZZZZ=             -6.9164 XXXY=              0.1030
 XXXZ=              0.0000 YYYX=             -0.0104 YYYZ=              0.0000 ZZZX=              0.0000
 ZZZY=              0.0000 XXYY=             -2.0025 XXZZ=             -2.5170 YYZZ=             -2.4171
 XXYZ=              0.0000 YYXZ=              0.0000 ZZXY=             -0.0714
 N-N= 9.177254909493D+00 E-N=-1.988846476640D+02  KE= 7.592133240471D+01
 Symmetry A'   KE= 7.148926791930D+01
 Symmetry A"   KE= 4.432064485411D+00
 Leave Link  601 at Wed Feb  8 14:48:14 2023, MaxMem=   754974720 cpu:               0.3 elap:               0.1
 (Enter /opt/cluster/programs/g16-c.01/g16/l9999.exe)
 Unable to Open any file for archive entry.
 1\1\GINC-NODE57\SP\RCCSD(T)-FC\Aug-CC-pVDZ\H2O1\BOITTIER\08-Feb-2023\0
 \\#P CCSD(T)/aug-cc-pVDZ scf(maxcycle=200)\\Gaussian input\\0,1\O,0,0.
 ,0.11751,0.\H,0,0.7183372325,-0.4395112028,0.\H,0,-0.9087365837,-0.320
 9860905,0.\\Version=ES64L-G16RevC.01\State=1-A'\HF=-76.0331764\MP2=-76
 .2522315\MP3=-76.2570475\MP4D=-76.2610011\MP4DQ=-76.258531\MP4SDQ=-76.
 2602472\CCSD=-76.2600438\CCSD(T)=-76.2652326\RMSD=7.896e-09\PG=CS [SG(
 H2O1)]\\@
 The archive entry for this job was punched.


  THE LARGE PRINT GIVETH,
  AND THE SMALL PRINT TAKETH AWAY.

                     -- TOM WAITS
 Job cpu time:       0 days  0 hours  0 minutes  5.3 seconds.
 Elapsed time:       0 days  0 hours  0 minutes  1.6 seconds.
 File lengths (MBytes):  RWF=     15 Int=      0 D2E=      0 Chk=      1 Scr=      1
 Normal termination of Gaussian 16 at Wed Feb  8 14:48:14 2023.
