 Entering Gaussian System, Link 0=/opt/cluster/programs/g16-c.01/g16/g16
 Input=/scratch/boittier/jobs/tmp.7312090/gaussian_81_water_hf_adz.com
 Output=/scratch/boittier/jobs/tmp.7312090/gaussian_81_water_hf_adz.out
 Initial command:
 /opt/cluster/programs/g16-c.01/g16/l1.exe "/scratch/boittier/jobs/tmp.7312090/Gau-185161.inp" -scrdir="/scratch/boittier/jobs/tmp.7312090/"
 Entering Link 1 = /opt/cluster/programs/g16-c.01/g16/l1.exe PID=    185162.
  
 Copyright (c) 1988-2019, Gaussian, Inc.  All Rights Reserved.
  
 This is part of the Gaussian(R) 16 program.  It is based on
 the Gaussian(R) 09 system (copyright 2009, Gaussian, Inc.),
 the Gaussian(R) 03 system (copyright 2003, Gaussian, Inc.),
 the Gaussian(R) 98 system (copyright 1998, Gaussian, Inc.),
 the Gaussian(R) 94 system (copyright 1995, Gaussian, Inc.),
 the Gaussian 92(TM) system (copyright 1992, Gaussian, Inc.),
 the Gaussian 90(TM) system (copyright 1990, Gaussian, Inc.),
 the Gaussian 88(TM) system (copyright 1988, Gaussian, Inc.),
 the Gaussian 86(TM) system (copyright 1986, Carnegie Mellon
 University), and the Gaussian 82(TM) system (copyright 1983,
 Carnegie Mellon University). Gaussian is a federally registered
 trademark of Gaussian, Inc.
  
 This software contains proprietary and confidential information,
 including trade secrets, belonging to Gaussian, Inc.
  
 This software is provided under written license and may be
 used, copied, transmitted, or stored only in accord with that
 written license.
  
 The following legend is applicable only to US Government
 contracts under FAR:
  
                    RESTRICTED RIGHTS LEGEND
  
 Use, reproduction and disclosure by the US Government is
 subject to restrictions as set forth in subparagraphs (a)
 and (c) of the Commercial Computer Software - Restricted
 Rights clause in FAR 52.227-19.
  
 Gaussian, Inc.
 340 Quinnipiac St., Bldg. 40, Wallingford CT 06492
  
  
 ---------------------------------------------------------------
 Warning -- This program may not be used in any manner that
 competes with the business of Gaussian, Inc. or will provide
 assistance to any competitor of Gaussian, Inc.  The licensee
 of this program is prohibited from giving any competitor of
 Gaussian, Inc. access to this program.  By using this program,
 the user acknowledges that Gaussian, Inc. is engaged in the
 business of creating and licensing software in the field of
 computational chemistry and represents and warrants to the
 licensee that it is not a competitor of Gaussian, Inc. and that
 it will not use this program in any manner prohibited above.
 ---------------------------------------------------------------
  

 Cite this work as:
 Gaussian 16, Revision C.01,
 M. J. Frisch, G. W. Trucks, H. B. Schlegel, G. E. Scuseria, 
 M. A. Robb, J. R. Cheeseman, G. Scalmani, V. Barone, 
 G. A. Petersson, H. Nakatsuji, X. Li, M. Caricato, A. V. Marenich, 
 J. Bloino, B. G. Janesko, R. Gomperts, B. Mennucci, H. P. Hratchian, 
 J. V. Ortiz, A. F. Izmaylov, J. L. Sonnenberg, D. Williams-Young, 
 F. Ding, F. Lipparini, F. Egidi, J. Goings, B. Peng, A. Petrone, 
 T. Henderson, D. Ranasinghe, V. G. Zakrzewski, J. Gao, N. Rega, 
 G. Zheng, W. Liang, M. Hada, M. Ehara, K. Toyota, R. Fukuda, 
 J. Hasegawa, M. Ishida, T. Nakajima, Y. Honda, O. Kitao, H. Nakai, 
 T. Vreven, K. Throssell, J. A. Montgomery, Jr., J. E. Peralta, 
 F. Ogliaro, M. J. Bearpark, J. J. Heyd, E. N. Brothers, K. N. Kudin, 
 V. N. Staroverov, T. A. Keith, R. Kobayashi, J. Normand, 
 K. Raghavachari, A. P. Rendell, J. C. Burant, S. S. Iyengar, 
 J. Tomasi, M. Cossi, J. M. Millam, M. Klene, C. Adamo, R. Cammi, 
 J. W. Ochterski, R. L. Martin, K. Morokuma, O. Farkas, 
 J. B. Foresman, and D. J. Fox, Gaussian, Inc., Wallingford CT, 2019.
 
 ******************************************
 Gaussian 16:  ES64L-G16RevC.01  3-Jul-2019
                20-Feb-2023 
 ******************************************
 %nproc=4
 Will use up to    4 processors via shared memory.
 %mem=5760MB
 %chk=gaussian_81_water_hf_adz.chk
 -----------------------------------
 #P HF/aug-cc-pVDZ scf(maxcycle=200)
 -----------------------------------
 1/38=1,172=1/1;
 2/12=2,17=6,18=5,40=1/2;
 3/5=16,7=10,11=9,25=1,30=1/1,2,3;
 4//1;
 5/5=2,7=200,38=5/2;
 6/7=2,8=2,9=2,10=2,28=1/1;
 99/5=1,9=1/99;
 Leave Link    1 at Mon Feb 20 10:27:55 2023, MaxMem=   754974720 cpu:               0.2 elap:               0.1
 (Enter /opt/cluster/programs/g16-c.01/g16/l101.exe)
 --------------
 Gaussian input
 --------------
 Symbolic Z-matrix:
 Charge =  0 Multiplicity = 1
 O                     0.        0.11751   0. 
 H                     0.75785  -0.47015   0. 
 H                    -0.53961  -0.67527   0. 
 
 ITRead=  0  0  0
 MicOpt= -1 -1 -1
 NAtoms=      3 NQM=        3 NQMF=       0 NMMI=      0 NMMIF=      0
                NMic=       0 NMicF=      0.
                    Isotopes and Nuclear Properties:
 (Nuclear quadrupole moments (NQMom) in fm**2, nuclear magnetic moments (NMagM)
  in nuclear magnetons)

  Atom         1           2           3
 IAtWgt=          16           1           1
 AtmWgt=  15.9949146   1.0078250   1.0078250
 NucSpn=           0           1           1
 AtZEff=  -0.0000000  -0.0000000  -0.0000000
 NQMom=    0.0000000   0.0000000   0.0000000
 NMagM=    0.0000000   2.7928460   2.7928460
 AtZNuc=   8.0000000   1.0000000   1.0000000
 Leave Link  101 at Mon Feb 20 10:27:55 2023, MaxMem=   754974720 cpu:               0.9 elap:               0.3
 (Enter /opt/cluster/programs/g16-c.01/g16/l202.exe)
                          Input orientation:                          
 ---------------------------------------------------------------------
 Center     Atomic      Atomic             Coordinates (Angstroms)
 Number     Number       Type             X           Y           Z
 ---------------------------------------------------------------------
      1          8           0        0.000000    0.117510    0.000000
      2          1           0        0.757850   -0.470150    0.000000
      3          1           0       -0.539607   -0.675273    0.000000
 ---------------------------------------------------------------------
                    Distance matrix (angstroms):
                    1          2          3
     1  O    0.000000
     2  H    0.959000   0.000000
     3  H    0.959000   1.313571   0.000000
 Stoichiometry    H2O
 Framework group  C2V[C2(O),SGV(H2)]
 Deg. of freedom     2
 Full point group                 C2V     NOp   4
 Largest Abelian subgroup         C2V     NOp   4
 Largest concise Abelian subgroup C2      NOp   2
                         Standard orientation:                         
 ---------------------------------------------------------------------
 Center     Atomic      Atomic             Coordinates (Angstroms)
 Number     Number       Type             X           Y           Z
 ---------------------------------------------------------------------
      1          8           0        0.000000    0.000000    0.139759
      2          1           0       -0.000000    0.656786   -0.559036
      3          1           0       -0.000000   -0.656786   -0.559036
 ---------------------------------------------------------------------
 Rotational constants (GHZ):         581.2390154         578.1607806         289.8479058
 Leave Link  202 at Mon Feb 20 10:27:55 2023, MaxMem=   754974720 cpu:               0.1 elap:               0.1
 (Enter /opt/cluster/programs/g16-c.01/g16/l301.exe)
 Standard basis: Aug-CC-pVDZ (5D, 7F)
 Ernie: Thresh=  0.10000D-02 Tol=  0.10000D-05 Strict=F.
 Ernie:  2 primitive shells out of 39 were deleted.
 There are    20 symmetry adapted cartesian basis functions of A1  symmetry.
 There are     4 symmetry adapted cartesian basis functions of A2  symmetry.
 There are     7 symmetry adapted cartesian basis functions of B1  symmetry.
 There are    12 symmetry adapted cartesian basis functions of B2  symmetry.
 There are    18 symmetry adapted basis functions of A1  symmetry.
 There are     4 symmetry adapted basis functions of A2  symmetry.
 There are     7 symmetry adapted basis functions of B1  symmetry.
 There are    12 symmetry adapted basis functions of B2  symmetry.
    41 basis functions,    65 primitive gaussians,    43 cartesian basis functions
     5 alpha electrons        5 beta electrons
       nuclear repulsion energy         9.2316706862 Hartrees.
 IExCor=    0 DFT=F Ex=HF Corr=None ExCW=0 ScaHFX=  1.000000
 ScaDFX=  1.000000  1.000000  1.000000  1.000000 ScalE2=  1.000000  1.000000
 IRadAn=      5 IRanWt=     -1 IRanGd=            0 ICorTp=0 IEmpDi=  4
 NAtoms=    3 NActive=    3 NUniq=    2 SFac= 2.25D+00 NAtFMM=   60 NAOKFM=F Big=F
 Integral buffers will be    131072 words long.
 Raffenetti 1 integral format.
 Two-electron integral symmetry is turned on.
 Leave Link  301 at Mon Feb 20 10:27:55 2023, MaxMem=   754974720 cpu:               0.1 elap:               0.1
 (Enter /opt/cluster/programs/g16-c.01/g16/l302.exe)
 NPDir=0 NMtPBC=     1 NCelOv=     1 NCel=       1 NClECP=     1 NCelD=      1
         NCelK=      1 NCelE2=     1 NClLst=     1 CellRange=     0.0.
 One-electron integrals computed using PRISM.
 One-electron integral symmetry used in STVInt
 NBasis=    41 RedAO= T EigKep=  1.74D-03  NBF=    18     4     7    12
 NBsUse=    41 1.00D-06 EigRej= -1.00D+00 NBFU=    18     4     7    12
 Leave Link  302 at Mon Feb 20 10:27:56 2023, MaxMem=   754974720 cpu:               1.4 elap:               0.7
 (Enter /opt/cluster/programs/g16-c.01/g16/l303.exe)
 DipDrv:  MaxL=1.
 Leave Link  303 at Mon Feb 20 10:27:56 2023, MaxMem=   754974720 cpu:               0.5 elap:               0.3
 (Enter /opt/cluster/programs/g16-c.01/g16/l401.exe)
 ExpMin= 2.97D-02 ExpMax= 1.17D+04 ExpMxC= 4.01D+02 IAcc=3 IRadAn=         5 AccDes= 0.00D+00
 Harris functional with IExCor=  205 and IRadAn=       5 diagonalized for initial guess.
 HarFok:  IExCor=  205 AccDes= 0.00D+00 IRadAn=         5 IDoV= 1 UseB2=F ITyADJ=14
 ICtDFT=  3500011 ScaDFX=  1.000000  1.000000  1.000000  1.000000
 FoFCou: FMM=F IPFlag=           0 FMFlag=      100000 FMFlg1=           0
         NFxFlg=           0 DoJE=T BraDBF=F KetDBF=T FulRan=T
         wScrn=  0.000000 ICntrl=       500 IOpCl=  0 I1Cent=   200000004 NGrid=           0
         NMat0=    1 NMatS0=      1 NMatT0=    0 NMatD0=    1 NMtDS0=    0 NMtDT0=    0
 Petite list used in FoFCou.
 Harris En= -76.1151111204598    
 JPrj=0 DoOrth=F DoCkMO=F.
 Initial guess orbital symmetries:
       Occupied  (A1) (A1) (B2) (A1) (B1)
       Virtual   (A1) (B2) (A1) (B1) (B2) (A1) (B2) (A1) (A1) (A2)
                 (B1) (B2) (A1) (B2) (B2) (A1) (B1) (A1) (A2) (A1)
                 (B1) (B2) (A1) (A2) (B2) (A1) (B1) (B2) (A1) (B2)
                 (A1) (B1) (A1) (A2) (A1) (B2)
 The electronic state of the initial guess is 1-A1.
 Leave Link  401 at Mon Feb 20 10:27:57 2023, MaxMem=   754974720 cpu:               1.9 elap:               1.0
 (Enter /opt/cluster/programs/g16-c.01/g16/l502.exe)
 Keep R1 ints in memory in symmetry-blocked form, NReq=1211502.
 FoFCou: FMM=F IPFlag=           0 FMFlag=           0 FMFlg1=           0
         NFxFlg=           0 DoJE=F BraDBF=F KetDBF=F FulRan=T
         wScrn=  0.000000 ICntrl=       600 IOpCl=  0 I1Cent=           0 NGrid=           0
         NMat0=    1 NMatS0=    861 NMatT0=    0 NMatD0=    1 NMtDS0=    0 NMtDT0=    0
 Petite list used in FoFCou.
 Closed shell SCF:
 Using DIIS extrapolation, IDIIS=  1040.
 NGot=   754974720 LenX=   754868251 LenY=   754865961
 Requested convergence on RMS density matrix=1.00D-08 within 200 cycles.
 Requested convergence on MAX density matrix=1.00D-06.
 Requested convergence on             energy=1.00D-06.
 No special actions if energy rises.

 Cycle   1  Pass 1  IDiag  1:
 E= -75.9556519816596    
 DIIS: error= 4.97D-02 at cycle   1 NSaved=   1.
 NSaved= 1 IEnMin= 1 EnMin= -75.9556519816596     IErMin= 1 ErrMin= 4.97D-02
 ErrMax= 4.97D-02  0.00D+00 EMaxC= 1.00D-01 BMatC= 1.15D-01 BMatP= 1.15D-01
 IDIUse=3 WtCom= 5.03D-01 WtEn= 4.97D-01
 Coeff-Com:  0.100D+01
 Coeff-En:   0.100D+01
 Coeff:      0.100D+01
 Gap=     0.462 Goal=   None    Shift=    0.000
 GapD=    0.462 DampG=2.000 DampE=0.500 DampFc=1.0000 IDamp=-1.
 RMSDP=6.28D-03 MaxDP=1.15D-01              OVMax= 1.23D-01

 Cycle   2  Pass 1  IDiag  1:
 E= -75.9984718552083     Delta-E=       -0.042819873549 Rises=F Damp=F
 DIIS: error= 4.02D-02 at cycle   2 NSaved=   2.
 NSaved= 2 IEnMin= 2 EnMin= -75.9984718552083     IErMin= 2 ErrMin= 4.02D-02
 ErrMax= 4.02D-02  0.00D+00 EMaxC= 1.00D-01 BMatC= 4.58D-02 BMatP= 1.15D-01
 IDIUse=3 WtCom= 5.98D-01 WtEn= 4.02D-01
 Coeff-Com:  0.377D+00 0.623D+00
 Coeff-En:   0.222D+00 0.778D+00
 Coeff:      0.315D+00 0.685D+00
 Gap=     0.564 Goal=   None    Shift=    0.000
 RMSDP=2.99D-03 MaxDP=5.41D-02 DE=-4.28D-02 OVMax= 5.86D-02

 Cycle   3  Pass 1  IDiag  1:
 E= -76.0300668095090     Delta-E=       -0.031594954301 Rises=F Damp=F
 DIIS: error= 4.41D-03 at cycle   3 NSaved=   3.
 NSaved= 3 IEnMin= 3 EnMin= -76.0300668095090     IErMin= 3 ErrMin= 4.41D-03
 ErrMax= 4.41D-03  0.00D+00 EMaxC= 1.00D-01 BMatC= 1.12D-03 BMatP= 4.58D-02
 IDIUse=3 WtCom= 9.56D-01 WtEn= 4.41D-02
 Coeff-Com: -0.388D-01 0.895D-01 0.949D+00
 Coeff-En:   0.000D+00 0.000D+00 0.100D+01
 Coeff:     -0.371D-01 0.855D-01 0.952D+00
 Gap=     0.546 Goal=   None    Shift=    0.000
 RMSDP=4.62D-04 MaxDP=8.33D-03 DE=-3.16D-02 OVMax= 9.45D-03

 Cycle   4  Pass 1  IDiag  1:
 E= -76.0309162173697     Delta-E=       -0.000849407861 Rises=F Damp=F
 DIIS: error= 6.86D-04 at cycle   4 NSaved=   4.
 NSaved= 4 IEnMin= 4 EnMin= -76.0309162173697     IErMin= 4 ErrMin= 6.86D-04
 ErrMax= 6.86D-04  0.00D+00 EMaxC= 1.00D-01 BMatC= 7.12D-06 BMatP= 1.12D-03
 IDIUse=3 WtCom= 9.93D-01 WtEn= 6.86D-03
 Coeff-Com:  0.995D-02-0.430D-01-0.347D+00 0.138D+01
 Coeff-En:   0.000D+00 0.000D+00 0.000D+00 0.100D+01
 Coeff:      0.988D-02-0.427D-01-0.344D+00 0.138D+01
 Gap=     0.547 Goal=   None    Shift=    0.000
 RMSDP=1.08D-04 MaxDP=1.24D-03 DE=-8.49D-04 OVMax= 1.96D-03

 Cycle   5  Pass 1  IDiag  1:
 E= -76.0309336031266     Delta-E=       -0.000017385757 Rises=F Damp=F
 DIIS: error= 1.79D-04 at cycle   5 NSaved=   5.
 NSaved= 5 IEnMin= 5 EnMin= -76.0309336031266     IErMin= 5 ErrMin= 1.79D-04
 ErrMax= 1.79D-04  0.00D+00 EMaxC= 1.00D-01 BMatC= 2.75D-07 BMatP= 7.12D-06
 IDIUse=3 WtCom= 9.98D-01 WtEn= 1.79D-03
 Coeff-Com: -0.142D-02 0.830D-02 0.662D-01-0.408D+00 0.133D+01
 Coeff-En:   0.000D+00 0.000D+00 0.000D+00 0.000D+00 0.100D+01
 Coeff:     -0.142D-02 0.829D-02 0.661D-01-0.407D+00 0.133D+01
 Gap=     0.548 Goal=   None    Shift=    0.000
 RMSDP=2.36D-05 MaxDP=4.07D-04 DE=-1.74D-05 OVMax= 5.55D-04

 Cycle   6  Pass 1  IDiag  1:
 E= -76.0309344094242     Delta-E=       -0.000000806298 Rises=F Damp=F
 DIIS: error= 2.50D-05 at cycle   6 NSaved=   6.
 NSaved= 6 IEnMin= 6 EnMin= -76.0309344094242     IErMin= 6 ErrMin= 2.50D-05
 ErrMax= 2.50D-05  0.00D+00 EMaxC= 1.00D-01 BMatC= 8.31D-09 BMatP= 2.75D-07
 IDIUse=1 WtCom= 1.00D+00 WtEn= 0.00D+00
 Coeff-Com: -0.167D-03 0.450D-03 0.289D-02 0.109D-01-0.231D+00 0.122D+01
 Coeff:     -0.167D-03 0.450D-03 0.289D-02 0.109D-01-0.231D+00 0.122D+01
 Gap=     0.548 Goal=   None    Shift=    0.000
 RMSDP=3.22D-06 MaxDP=7.18D-05 DE=-8.06D-07 OVMax= 9.69D-05

 Cycle   7  Pass 1  IDiag  1:
 E= -76.0309344321387     Delta-E=       -0.000000022715 Rises=F Damp=F
 DIIS: error= 3.98D-06 at cycle   7 NSaved=   7.
 NSaved= 7 IEnMin= 7 EnMin= -76.0309344321387     IErMin= 7 ErrMin= 3.98D-06
 ErrMax= 3.98D-06  0.00D+00 EMaxC= 1.00D-01 BMatC= 3.48D-10 BMatP= 8.31D-09
 IDIUse=1 WtCom= 1.00D+00 WtEn= 0.00D+00
 Coeff-Com:  0.112D-03-0.550D-03-0.444D-02 0.219D-01-0.289D-01-0.208D+00
 Coeff-Com:  0.122D+01
 Coeff:      0.112D-03-0.550D-03-0.444D-02 0.219D-01-0.289D-01-0.208D+00
 Coeff:      0.122D+01
 Gap=     0.548 Goal=   None    Shift=    0.000
 RMSDP=6.65D-07 MaxDP=9.17D-06 DE=-2.27D-08 OVMax= 1.62D-05

 Cycle   8  Pass 1  IDiag  1:
 E= -76.0309344329189     Delta-E=       -0.000000000780 Rises=F Damp=F
 DIIS: error= 6.17D-07 at cycle   8 NSaved=   8.
 NSaved= 8 IEnMin= 8 EnMin= -76.0309344329189     IErMin= 8 ErrMin= 6.17D-07
 ErrMax= 6.17D-07  0.00D+00 EMaxC= 1.00D-01 BMatC= 7.60D-12 BMatP= 3.48D-10
 IDIUse=1 WtCom= 1.00D+00 WtEn= 0.00D+00
 Coeff-Com: -0.212D-04 0.115D-03 0.968D-03-0.560D-02 0.129D-01 0.208D-01
 Coeff-Com: -0.321D+00 0.129D+01
 Coeff:     -0.212D-04 0.115D-03 0.968D-03-0.560D-02 0.129D-01 0.208D-01
 Coeff:     -0.321D+00 0.129D+01
 Gap=     0.548 Goal=   None    Shift=    0.000
 RMSDP=1.52D-07 MaxDP=2.05D-06 DE=-7.80D-10 OVMax= 2.66D-06

 Cycle   9  Pass 1  IDiag  1:
 E= -76.0309344329391     Delta-E=       -0.000000000020 Rises=F Damp=F
 DIIS: error= 9.07D-08 at cycle   9 NSaved=   9.
 NSaved= 9 IEnMin= 9 EnMin= -76.0309344329391     IErMin= 9 ErrMin= 9.07D-08
 ErrMax= 9.07D-08  0.00D+00 EMaxC= 1.00D-01 BMatC= 2.21D-13 BMatP= 7.60D-12
 IDIUse=1 WtCom= 1.00D+00 WtEn= 0.00D+00
 Coeff-Com:  0.295D-05-0.168D-04-0.156D-03 0.104D-02-0.286D-02-0.125D-02
 Coeff-Com:  0.639D-01-0.357D+00 0.130D+01
 Coeff:      0.295D-05-0.168D-04-0.156D-03 0.104D-02-0.286D-02-0.125D-02
 Coeff:      0.639D-01-0.357D+00 0.130D+01
 Gap=     0.548 Goal=   None    Shift=    0.000
 RMSDP=2.13D-08 MaxDP=2.47D-07 DE=-2.02D-11 OVMax= 3.55D-07

 Cycle  10  Pass 1  IDiag  1:
 E= -76.0309344329396     Delta-E=       -0.000000000001 Rises=F Damp=F
 DIIS: error= 2.04D-08 at cycle  10 NSaved=  10.
 NSaved=10 IEnMin=10 EnMin= -76.0309344329396     IErMin=10 ErrMin= 2.04D-08
 ErrMax= 2.04D-08  0.00D+00 EMaxC= 1.00D-01 BMatC= 9.86D-15 BMatP= 2.21D-13
 IDIUse=1 WtCom= 1.00D+00 WtEn= 0.00D+00
 Coeff-Com: -0.328D-06 0.214D-05 0.262D-04-0.224D-03 0.772D-03-0.567D-03
 Coeff-Com: -0.138D-01 0.966D-01-0.542D+00 0.146D+01
 Coeff:     -0.328D-06 0.214D-05 0.262D-04-0.224D-03 0.772D-03-0.567D-03
 Coeff:     -0.138D-01 0.966D-01-0.542D+00 0.146D+01
 Gap=     0.548 Goal=   None    Shift=    0.000
 RMSDP=5.51D-09 MaxDP=5.96D-08 DE=-5.40D-13 OVMax= 1.19D-07

 SCF Done:  E(RHF) =  -76.0309344329     A.U. after   10 cycles
            NFock= 10  Conv=0.55D-08     -V/T= 2.0011
 KE= 7.594770569753D+01 PE=-1.989327202818D+02 EE= 3.772240946509D+01
 Leave Link  502 at Mon Feb 20 10:28:01 2023, MaxMem=   754974720 cpu:               6.8 elap:               3.4
 (Enter /opt/cluster/programs/g16-c.01/g16/l601.exe)
 Copying SCF densities to generalized density rwf, IOpCl= 0 IROHF=0.

 **********************************************************************

            Population analysis using the SCF Density.

 **********************************************************************

 Orbital symmetries:
       Occupied  (A1) (A1) (B2) (A1) (B1)
       Virtual   (A1) (B2) (A1) (B1) (A1) (B2) (B2) (A1) (A1) (A2)
                 (B1) (B2) (A1) (B2) (B2) (A1) (B1) (A1) (A2) (A1)
                 (B2) (B1) (A1) (A2) (B2) (A1) (B1) (B2) (B2) (A1)
                 (A1) (B1) (A1) (A2) (A1) (B2)
 The electronic state is 1-A1.
 Alpha  occ. eigenvalues --  -20.58459  -1.37044  -0.67894  -0.62195  -0.51418
 Alpha virt. eigenvalues --    0.03356   0.05951   0.17137   0.19893   0.22300
 Alpha virt. eigenvalues --    0.23647   0.28337   0.35991   0.37292   0.39633
 Alpha virt. eigenvalues --    0.40909   0.55596   0.64024   0.66054   0.77418
 Alpha virt. eigenvalues --    0.96140   1.11299   1.12188   1.14780   1.28229
 Alpha virt. eigenvalues --    1.43191   1.45972   1.61564   1.99257   2.05039
 Alpha virt. eigenvalues --    2.11142   2.13161   2.53800   2.65978   2.66346
 Alpha virt. eigenvalues --    3.06177   3.68056   3.68832   3.69587   4.00849
 Alpha virt. eigenvalues --    4.30137
          Condensed to atoms (all electrons):
               1          2          3
     1  O    7.650575   0.321534   0.321534
     2  H    0.321534   0.537996  -0.006352
     3  H    0.321534  -0.006352   0.537996
 Mulliken charges:
               1
     1  O   -0.293643
     2  H    0.146822
     3  H    0.146822
 Sum of Mulliken charges =  -0.00000
 Mulliken charges with hydrogens summed into heavy atoms:
               1
     1  O   -0.000000
 Electronic spatial extent (au):  <R**2>=             19.5156
 Charge=             -0.0000 electrons
 Dipole moment (field-independent basis, Debye):
    X=             -0.0000    Y=             -0.0000    Z=             -2.2711  Tot=              2.2711
 Quadrupole moment (field-independent basis, Debye-Ang):
   XX=             -7.5638   YY=             -5.0746   ZZ=             -5.7142
   XY=              0.0000   XZ=              0.0000   YZ=             -0.0000
 Traceless Quadrupole moment (field-independent basis, Debye-Ang):
   XX=             -1.4462   YY=              1.0429   ZZ=              0.4033
   XY=              0.0000   XZ=              0.0000   YZ=             -0.0000
 Octapole moment (field-independent basis, Debye-Ang**2):
  XXX=              0.0000  YYY=             -0.0000  ZZZ=             -1.5555  XYY=             -0.0000
  XXY=             -0.0000  XXZ=             -0.3305  XZZ=              0.0000  YZZ=             -0.0000
  YYZ=             -1.2488  XYZ=             -0.0000
 Hexadecapole moment (field-independent basis, Debye-Ang**3):
 XXXX=             -6.7081 YYYY=             -6.4926 ZZZZ=             -7.3475 XXXY=             -0.0000
 XXXZ=             -0.0000 YYYX=             -0.0000 YYYZ=              0.0000 ZZZX=             -0.0000
 ZZZY=             -0.0000 XXYY=             -2.3664 XXZZ=             -2.4392 YYZZ=             -1.8386
 XXYZ=             -0.0000 YYXZ=              0.0000 ZZXY=              0.0000
 N-N= 9.231670686211D+00 E-N=-1.989327204627D+02  KE= 7.594770569753D+01
 Symmetry A1   KE= 6.784073268412D+01
 Symmetry A2   KE= 2.777298081485D-34
 Symmetry B1   KE= 4.459989744638D+00
 Symmetry B2   KE= 3.646983268769D+00
 No NMR shielding tensors so no spin-rotation constants.
 Leave Link  601 at Mon Feb 20 10:28:01 2023, MaxMem=   754974720 cpu:               1.3 elap:               0.6
 (Enter /opt/cluster/programs/g16-c.01/g16/l9999.exe)
 Unable to Open any file for archive entry.
 1\1\GINC-NODE105\SP\RHF\Aug-CC-pVDZ\H2O1\BOITTIER\20-Feb-2023\0\\#P HF
 /aug-cc-pVDZ scf(maxcycle=200)\\Gaussian input\\0,1\O,0,0.,0.11751,0.\
 H,0,0.7578497316,-0.4701504329,0.\H,0,-0.5396070801,-0.6752731981,0.\\
 Version=ES64L-G16RevC.01\State=1-A1\HF=-76.0309344\RMSD=5.513e-09\Dipo
 le=0.1395314,-0.8825735,0.\Quadrupole=0.7637904,0.3114491,-1.0752395,0
 .0733466,0.,0.\PG=C02V [C2(O1),SGV(H2)]\\@
 The archive entry for this job was punched.


 A ROPE OVER THE TOP OF A FENCE HAS THE SAME LENGTH ON EACH SIDE.
 WEIGHS 1/3 POUND PER FOOT.  ON ONE END HANGS A MONKEY HOLDING A
 BANANA, AND ON THE OTHER END A WEIGHT EQUAL TO THE WEIGHT
 OF THE MONKEY.  THE BANANA WEIGHS TWO OUNCES PER INCH.
 THE ROPE IS AS LONG AS THE AGE OF THE MONKEY, 
 AND THE WEIGHT OF THE MONKEY (IN OUNCES) IS AS MUCH
 AS THE AGE OF THE MONKEY'S MOTHER.  THE COMBINED AGES OF MONKEY
 AND MOTHER ARE THIRTY YEARS.  HALF THE WEIGHT OF THE MONKEY,
  PLUS THE WEIGHT OF THE BANANA, IS ONE FOURTH AS MUCH AS THE WEIGHT
 OF THE WEIGHT AND THE ROPE.
 THE MONKEY'S MOTHER IS HALF AS OLD AS THE MONKEY WILL BE
 WHEN IT IS 3 TIMES AS OLD AS ITS MOTHER WAS WHEN
 SHE WAS HALF AS OLD AS THE MONKEY WILL BE WHEN IT IS
 AS OLD AS ITS MOTHER WILL BE WHEN SHE IS 4 TIMES AS
 OLD AS THE MONKEY WAS WHEN IT WAS TWICE AS OLD AS 
 ITS MOTHER WAS WHEN SHE WAS ONE THIRD AS OLD AS THE
 MONKEY WAS WHEN IT WAS AS OLD AS ITS MOTHER WAS WHEN 
 SHE WAS 3 TIMES AS OLD AS THE MONKEY WAS WHEN IT WAS AS OLD AS ITS
 MOTHER WAS WHEN SHE WAS 3 TIMES AS OLD AS THE MONKEY 
 WAS WHEN IT WAS ONE FOURTH WAS OLD AS IT IS NOW.

 HOW LONG IS THE BANANA?
 Job cpu time:       0 days  0 hours  0 minutes 13.5 seconds.
 Elapsed time:       0 days  0 hours  0 minutes  6.6 seconds.
 File lengths (MBytes):  RWF=      6 Int=      0 D2E=      0 Chk=      1 Scr=      1
 Normal termination of Gaussian 16 at Mon Feb 20 10:28:01 2023.
