 Entering Gaussian System, Link 0=/opt/cluster/programs/g16-c.01/g16/g16
 Input=/scratch/boittier/jobs/tmp.7425305/gaussian_40_water_pbe0_dz.com
 Output=/scratch/boittier/jobs/tmp.7425305/gaussian_40_water_pbe0_dz.out
 Initial command:
 /opt/cluster/programs/g16-c.01/g16/l1.exe "/scratch/boittier/jobs/tmp.7425305/Gau-12844.inp" -scrdir="/scratch/boittier/jobs/tmp.7425305/"
 Entering Link 1 = /opt/cluster/programs/g16-c.01/g16/l1.exe PID=     12851.
  
 Copyright (c) 1988-2019, Gaussian, Inc.  All Rights Reserved.
  
 This is part of the Gaussian(R) 16 program.  It is based on
 the Gaussian(R) 09 system (copyright 2009, Gaussian, Inc.),
 the Gaussian(R) 03 system (copyright 2003, Gaussian, Inc.),
 the Gaussian(R) 98 system (copyright 1998, Gaussian, Inc.),
 the Gaussian(R) 94 system (copyright 1995, Gaussian, Inc.),
 the Gaussian 92(TM) system (copyright 1992, Gaussian, Inc.),
 the Gaussian 90(TM) system (copyright 1990, Gaussian, Inc.),
 the Gaussian 88(TM) system (copyright 1988, Gaussian, Inc.),
 the Gaussian 86(TM) system (copyright 1986, Carnegie Mellon
 University), and the Gaussian 82(TM) system (copyright 1983,
 Carnegie Mellon University). Gaussian is a federally registered
 trademark of Gaussian, Inc.
  
 This software contains proprietary and confidential information,
 including trade secrets, belonging to Gaussian, Inc.
  
 This software is provided under written license and may be
 used, copied, transmitted, or stored only in accord with that
 written license.
  
 The following legend is applicable only to US Government
 contracts under FAR:
  
                    RESTRICTED RIGHTS LEGEND
  
 Use, reproduction and disclosure by the US Government is
 subject to restrictions as set forth in subparagraphs (a)
 and (c) of the Commercial Computer Software - Restricted
 Rights clause in FAR 52.227-19.
  
 Gaussian, Inc.
 340 Quinnipiac St., Bldg. 40, Wallingford CT 06492
  
  
 ---------------------------------------------------------------
 Warning -- This program may not be used in any manner that
 competes with the business of Gaussian, Inc. or will provide
 assistance to any competitor of Gaussian, Inc.  The licensee
 of this program is prohibited from giving any competitor of
 Gaussian, Inc. access to this program.  By using this program,
 the user acknowledges that Gaussian, Inc. is engaged in the
 business of creating and licensing software in the field of
 computational chemistry and represents and warrants to the
 licensee that it is not a competitor of Gaussian, Inc. and that
 it will not use this program in any manner prohibited above.
 ---------------------------------------------------------------
  

 Cite this work as:
 Gaussian 16, Revision C.01,
 M. J. Frisch, G. W. Trucks, H. B. Schlegel, G. E. Scuseria, 
 M. A. Robb, J. R. Cheeseman, G. Scalmani, V. Barone, 
 G. A. Petersson, H. Nakatsuji, X. Li, M. Caricato, A. V. Marenich, 
 J. Bloino, B. G. Janesko, R. Gomperts, B. Mennucci, H. P. Hratchian, 
 J. V. Ortiz, A. F. Izmaylov, J. L. Sonnenberg, D. Williams-Young, 
 F. Ding, F. Lipparini, F. Egidi, J. Goings, B. Peng, A. Petrone, 
 T. Henderson, D. Ranasinghe, V. G. Zakrzewski, J. Gao, N. Rega, 
 G. Zheng, W. Liang, M. Hada, M. Ehara, K. Toyota, R. Fukuda, 
 J. Hasegawa, M. Ishida, T. Nakajima, Y. Honda, O. Kitao, H. Nakai, 
 T. Vreven, K. Throssell, J. A. Montgomery, Jr., J. E. Peralta, 
 F. Ogliaro, M. J. Bearpark, J. J. Heyd, E. N. Brothers, K. N. Kudin, 
 V. N. Staroverov, T. A. Keith, R. Kobayashi, J. Normand, 
 K. Raghavachari, A. P. Rendell, J. C. Burant, S. S. Iyengar, 
 J. Tomasi, M. Cossi, J. M. Millam, M. Klene, C. Adamo, R. Cammi, 
 J. W. Ochterski, R. L. Martin, K. Morokuma, O. Farkas, 
 J. B. Foresman, and D. J. Fox, Gaussian, Inc., Wallingford CT, 2019.
 
 ******************************************
 Gaussian 16:  ES64L-G16RevC.01  3-Jul-2019
                20-Mar-2023 
 ******************************************
 %nproc=4
 Will use up to    4 processors via shared memory.
 %mem=5760MB
 %chk=gaussian_40_water_pbe0_dz.chk
 ----------------------------------------
 #P PBE1PBE/aug-cc-pVDZ scf(maxcycle=200)
 ----------------------------------------
 1/38=1,172=1/1;
 2/12=2,17=6,18=5,40=1/2;
 3/5=16,7=10,11=2,25=1,30=1,74=-13/1,2,3;
 4//1;
 5/5=2,7=200,38=5/2;
 6/7=2,8=2,9=2,10=2,28=1/1;
 99/5=1,9=1/99;
 Leave Link    1 at Mon Mar 20 17:33:36 2023, MaxMem=   754974720 cpu:               0.1 elap:               0.1
 (Enter /opt/cluster/programs/g16-c.01/g16/l101.exe)
 --------------
 Gaussian input
 --------------
 Symbolic Z-matrix:
 Charge =  0 Multiplicity = 1
 O                     0.        0.11751   0. 
 H                     0.71834  -0.43951   0. 
 H                    -0.53828  -0.73591   0. 
 
 ITRead=  0  0  0
 MicOpt= -1 -1 -1
 NAtoms=      3 NQM=        3 NQMF=       0 NMMI=      0 NMMIF=      0
                NMic=       0 NMicF=      0.
                    Isotopes and Nuclear Properties:
 (Nuclear quadrupole moments (NQMom) in fm**2, nuclear magnetic moments (NMagM)
  in nuclear magnetons)

  Atom         1           2           3
 IAtWgt=          16           1           1
 AtmWgt=  15.9949146   1.0078250   1.0078250
 NucSpn=           0           1           1
 AtZEff=  -0.0000000  -0.0000000  -0.0000000
 NQMom=    0.0000000   0.0000000   0.0000000
 NMagM=    0.0000000   2.7928460   2.7928460
 AtZNuc=   8.0000000   1.0000000   1.0000000
 Leave Link  101 at Mon Mar 20 17:33:37 2023, MaxMem=   754974720 cpu:               1.1 elap:               0.5
 (Enter /opt/cluster/programs/g16-c.01/g16/l202.exe)
                          Input orientation:                          
 ---------------------------------------------------------------------
 Center     Atomic      Atomic             Coordinates (Angstroms)
 Number     Number       Type             X           Y           Z
 ---------------------------------------------------------------------
      1          8           0        0.000000    0.117510    0.000000
      2          1           0        0.718337   -0.439511    0.000000
      3          1           0       -0.538285   -0.735913    0.000000
 ---------------------------------------------------------------------
                    Distance matrix (angstroms):
                    1          2          3
     1  O    0.000000
     2  H    0.909000   0.000000
     3  H    1.009000   1.291105   0.000000
 Stoichiometry    H2O
 Framework group  CS[SG(H2O)]
 Deg. of freedom     3
 Full point group                 CS      NOp   2
 Largest Abelian subgroup         CS      NOp   2
 Largest concise Abelian subgroup C1      NOp   1
                         Standard orientation:                         
 ---------------------------------------------------------------------
 Center     Atomic      Atomic             Coordinates (Angstroms)
 Number     Number       Type             X           Y           Z
 ---------------------------------------------------------------------
      1          8           0        0.000000    0.142189    0.000000
      2          1           0        0.642020   -0.501311    0.000000
      3          1           0       -0.642020   -0.636201    0.000000
 ---------------------------------------------------------------------
 Rotational constants (GHZ):         651.4978565         521.5161843         289.6526933
 Leave Link  202 at Mon Mar 20 17:33:37 2023, MaxMem=   754974720 cpu:               0.1 elap:               0.1
 (Enter /opt/cluster/programs/g16-c.01/g16/l301.exe)
 Standard basis: Aug-CC-pVDZ (5D, 7F)
 Ernie: Thresh=  0.10000D-02 Tol=  0.10000D-05 Strict=F.
 Ernie:  2 primitive shells out of 39 were deleted.
 There are    32 symmetry adapted cartesian basis functions of A'  symmetry.
 There are    11 symmetry adapted cartesian basis functions of A"  symmetry.
 There are    30 symmetry adapted basis functions of A'  symmetry.
 There are    11 symmetry adapted basis functions of A"  symmetry.
    41 basis functions,    65 primitive gaussians,    43 cartesian basis functions
     5 alpha electrons        5 beta electrons
       nuclear repulsion energy         9.2627456729 Hartrees.
 IExCor= 1009 DFT=T Ex+Corr=PBE1PBE ExCW=0 ScaHFX=  0.250000
 ScaDFX=  0.750000  0.750000  1.000000  1.000000 ScalE2=  1.000000  1.000000
 IRadAn=      5 IRanWt=     -1 IRanGd=            0 ICorTp=0 IEmpDi=  4
 NAtoms=    3 NActive=    3 NUniq=    3 SFac= 1.00D+00 NAtFMM=   60 NAOKFM=F Big=F
 Integral buffers will be    131072 words long.
 Raffenetti 2 integral format.
 Two-electron integral symmetry is turned on.
 Leave Link  301 at Mon Mar 20 17:33:37 2023, MaxMem=   754974720 cpu:               0.2 elap:               0.1
 (Enter /opt/cluster/programs/g16-c.01/g16/l302.exe)
 NPDir=0 NMtPBC=     1 NCelOv=     1 NCel=       1 NClECP=     1 NCelD=      1
         NCelK=      1 NCelE2=     1 NClLst=     1 CellRange=     0.0.
 One-electron integrals computed using PRISM.
 One-electron integral symmetry used in STVInt
 NBasis=    41 RedAO= T EigKep=  1.62D-03  NBF=    30    11
 NBsUse=    41 1.00D-06 EigRej= -1.00D+00 NBFU=    30    11
 Precomputing XC quadrature grid using
 IXCGrd= 4 IRadAn=           5 IRanWt=          -1 IRanGd=           0 AccXCQ= 0.00D+00.
 Generated NRdTot=       0 NPtTot=           0 NUsed=           0 NTot=          32
 NSgBfM=    43    43    43    43    43 MxSgAt=     3 MxSgA2=     3.
 Leave Link  302 at Mon Mar 20 17:33:37 2023, MaxMem=   754974720 cpu:               0.7 elap:               0.3
 (Enter /opt/cluster/programs/g16-c.01/g16/l303.exe)
 DipDrv:  MaxL=1.
 Leave Link  303 at Mon Mar 20 17:33:37 2023, MaxMem=   754974720 cpu:               0.5 elap:               0.3
 (Enter /opt/cluster/programs/g16-c.01/g16/l401.exe)
 ExpMin= 2.97D-02 ExpMax= 1.17D+04 ExpMxC= 4.01D+02 IAcc=3 IRadAn=         5 AccDes= 0.00D+00
 Harris functional with IExCor= 1009 and IRadAn=       5 diagonalized for initial guess.
 HarFok:  IExCor= 1009 AccDes= 0.00D+00 IRadAn=         5 IDoV= 1 UseB2=F ITyADJ=14
 ICtDFT=  3500011 ScaDFX=  1.000000  1.000000  1.000000  1.000000
 FoFCou: FMM=F IPFlag=           0 FMFlag=      100000 FMFlg1=           0
         NFxFlg=           0 DoJE=T BraDBF=F KetDBF=T FulRan=T
         wScrn=  0.000000 ICntrl=       500 IOpCl=  0 I1Cent=   200000004 NGrid=           0
         NMat0=    1 NMatS0=      1 NMatT0=    0 NMatD0=    1 NMtDS0=    0 NMtDT0=    0
 Petite list used in FoFCou.
 Harris En= -76.3827378237163    
 JPrj=0 DoOrth=F DoCkMO=F.
 Initial guess orbital symmetries:
       Occupied  (A') (A') (A') (A') (A")
       Virtual   (A') (A') (A') (A") (A') (A') (A') (A') (A') (A")
                 (A") (A') (A') (A') (A') (A') (A") (A') (A") (A')
                 (A") (A') (A') (A") (A') (A') (A") (A') (A') (A')
                 (A') (A") (A') (A") (A') (A')
 The electronic state of the initial guess is 1-A'.
 Leave Link  401 at Mon Mar 20 17:33:38 2023, MaxMem=   754974720 cpu:               1.7 elap:               0.8
 (Enter /opt/cluster/programs/g16-c.01/g16/l502.exe)
 Keep R1 ints in memory in symmetry-blocked form, NReq=3831793.
 FoFCou: FMM=F IPFlag=           0 FMFlag=           0 FMFlg1=           0
         NFxFlg=           0 DoJE=F BraDBF=F KetDBF=F FulRan=T
         wScrn=  0.000000 ICntrl=       600 IOpCl=  0 I1Cent=           0 NGrid=           0
         NMat0=    1 NMatS0=    861 NMatT0=    0 NMatD0=    1 NMtDS0=    0 NMtDT0=    0
 Petite list used in FoFCou.
 Closed shell SCF:
 Using DIIS extrapolation, IDIIS=  1040.
 NGot=   754974720 LenX=   754771907 LenY=   754769617
 Requested convergence on RMS density matrix=1.00D-08 within 200 cycles.
 Requested convergence on MAX density matrix=1.00D-06.
 Requested convergence on             energy=1.00D-06.
 No special actions if energy rises.

 Cycle   1  Pass 1  IDiag  1:
 E= -76.2755214086935    
 DIIS: error= 5.23D-02 at cycle   1 NSaved=   1.
 NSaved= 1 IEnMin= 1 EnMin= -76.2755214086935     IErMin= 1 ErrMin= 5.23D-02
 ErrMax= 5.23D-02  0.00D+00 EMaxC= 1.00D-01 BMatC= 8.84D-02 BMatP= 8.84D-02
 IDIUse=3 WtCom= 4.77D-01 WtEn= 5.23D-01
 Coeff-Com:  0.100D+01
 Coeff-En:   0.100D+01
 Coeff:      0.100D+01
 Gap=     0.176 Goal=   None    Shift=    0.000
 GapD=    0.176 DampG=1.000 DampE=0.500 DampFc=0.5000 IDamp=-1.
 Damping current iteration by 5.00D-01
 RMSDP=1.04D-02 MaxDP=1.61D-01              OVMax= 2.02D-01

 Cycle   2  Pass 1  IDiag  1:
 E= -76.2914498881622     Delta-E=       -0.015928479469 Rises=F Damp=T
 DIIS: error= 1.86D-02 at cycle   2 NSaved=   2.
 NSaved= 2 IEnMin= 2 EnMin= -76.2914498881622     IErMin= 2 ErrMin= 1.86D-02
 ErrMax= 1.86D-02  0.00D+00 EMaxC= 1.00D-01 BMatC= 9.20D-03 BMatP= 8.84D-02
 IDIUse=3 WtCom= 8.14D-01 WtEn= 1.86D-01
 Coeff-Com:  0.234D+00 0.766D+00
 Coeff-En:   0.387D+00 0.613D+00
 Coeff:      0.262D+00 0.738D+00
 Gap=     0.309 Goal=   None    Shift=    0.000
 RMSDP=1.32D-03 MaxDP=1.63D-02 DE=-1.59D-02 OVMax= 1.28D-01

 Cycle   3  Pass 1  IDiag  1:
 E= -76.3438174482298     Delta-E=       -0.052367560068 Rises=F Damp=F
 DIIS: error= 1.86D-03 at cycle   3 NSaved=   3.
 NSaved= 3 IEnMin= 3 EnMin= -76.3438174482298     IErMin= 3 ErrMin= 1.86D-03
 ErrMax= 1.86D-03  0.00D+00 EMaxC= 1.00D-01 BMatC= 1.11D-04 BMatP= 9.20D-03
 IDIUse=3 WtCom= 9.81D-01 WtEn= 1.86D-02
 Coeff-Com:  0.182D-01-0.573D-01 0.104D+01
 Coeff-En:   0.000D+00 0.000D+00 0.100D+01
 Coeff:      0.179D-01-0.562D-01 0.104D+01
 Gap=     0.320 Goal=   None    Shift=    0.000
 RMSDP=1.49D-04 MaxDP=2.09D-03 DE=-5.24D-02 OVMax= 2.27D-03

 Cycle   4  Pass 1  IDiag  1:
 E= -76.3438892541329     Delta-E=       -0.000071805903 Rises=F Damp=F
 DIIS: error= 3.10D-04 at cycle   4 NSaved=   4.
 NSaved= 4 IEnMin= 4 EnMin= -76.3438892541329     IErMin= 4 ErrMin= 3.10D-04
 ErrMax= 3.10D-04  0.00D+00 EMaxC= 1.00D-01 BMatC= 2.82D-06 BMatP= 1.11D-04
 IDIUse=3 WtCom= 9.97D-01 WtEn= 3.10D-03
 Coeff-Com:  0.534D-02-0.159D-01 0.172D+00 0.839D+00
 Coeff-En:   0.000D+00 0.000D+00 0.000D+00 0.100D+01
 Coeff:      0.532D-02-0.158D-01 0.171D+00 0.839D+00
 Gap=     0.321 Goal=   None    Shift=    0.000
 RMSDP=2.05D-05 MaxDP=3.32D-04 DE=-7.18D-05 OVMax= 4.37D-04

 Cycle   5  Pass 1  IDiag  1:
 E= -76.3438912377824     Delta-E=       -0.000001983650 Rises=F Damp=F
 DIIS: error= 7.21D-05 at cycle   5 NSaved=   5.
 NSaved= 5 IEnMin= 5 EnMin= -76.3438912377824     IErMin= 5 ErrMin= 7.21D-05
 ErrMax= 7.21D-05  0.00D+00 EMaxC= 1.00D-01 BMatC= 1.51D-07 BMatP= 2.82D-06
 IDIUse=1 WtCom= 1.00D+00 WtEn= 0.00D+00
 Coeff-Com:  0.132D-02-0.208D-02 0.361D-02 0.160D+00 0.837D+00
 Coeff:      0.132D-02-0.208D-02 0.361D-02 0.160D+00 0.837D+00
 Gap=     0.321 Goal=   None    Shift=    0.000
 RMSDP=6.02D-06 MaxDP=7.00D-05 DE=-1.98D-06 OVMax= 1.04D-04

 Cycle   6  Pass 1  IDiag  1:
 E= -76.3438913577550     Delta-E=       -0.000000119973 Rises=F Damp=F
 DIIS: error= 5.08D-06 at cycle   6 NSaved=   6.
 NSaved= 6 IEnMin= 6 EnMin= -76.3438913577550     IErMin= 6 ErrMin= 5.08D-06
 ErrMax= 5.08D-06  0.00D+00 EMaxC= 1.00D-01 BMatC= 5.19D-10 BMatP= 1.51D-07
 IDIUse=1 WtCom= 1.00D+00 WtEn= 0.00D+00
 Coeff-Com: -0.868D-06-0.275D-04-0.163D-03-0.965D-02-0.587D-02 0.102D+01
 Coeff:     -0.868D-06-0.275D-04-0.163D-03-0.965D-02-0.587D-02 0.102D+01
 Gap=     0.321 Goal=   None    Shift=    0.000
 RMSDP=5.26D-07 MaxDP=6.81D-06 DE=-1.20D-07 OVMax= 9.43D-06

 Cycle   7  Pass 1  IDiag  1:
 E= -76.3438913582135     Delta-E=       -0.000000000458 Rises=F Damp=F
 DIIS: error= 5.44D-07 at cycle   7 NSaved=   7.
 NSaved= 7 IEnMin= 7 EnMin= -76.3438913582135     IErMin= 7 ErrMin= 5.44D-07
 ErrMax= 5.44D-07  0.00D+00 EMaxC= 1.00D-01 BMatC= 1.23D-11 BMatP= 5.19D-10
 IDIUse=1 WtCom= 1.00D+00 WtEn= 0.00D+00
 Coeff-Com: -0.366D-04 0.520D-04-0.216D-03-0.685D-02-0.244D-01 0.271D+00
 Coeff-Com:  0.761D+00
 Coeff:     -0.366D-04 0.520D-04-0.216D-03-0.685D-02-0.244D-01 0.271D+00
 Coeff:      0.761D+00
 Gap=     0.321 Goal=   None    Shift=    0.000
 RMSDP=6.96D-08 MaxDP=7.75D-07 DE=-4.58D-10 OVMax= 1.23D-06

 Cycle   8  Pass 1  IDiag  1:
 E= -76.3438913582239     Delta-E=       -0.000000000010 Rises=F Damp=F
 DIIS: error= 8.68D-08 at cycle   8 NSaved=   8.
 NSaved= 8 IEnMin= 8 EnMin= -76.3438913582239     IErMin= 8 ErrMin= 8.68D-08
 ErrMax= 8.68D-08  0.00D+00 EMaxC= 1.00D-01 BMatC= 3.31D-13 BMatP= 1.23D-11
 IDIUse=1 WtCom= 1.00D+00 WtEn= 0.00D+00
 Coeff-Com: -0.809D-06 0.210D-05-0.104D-04 0.422D-03 0.331D-03-0.253D-01
 Coeff-Com: -0.202D-01 0.104D+01
 Coeff:     -0.809D-06 0.210D-05-0.104D-04 0.422D-03 0.331D-03-0.253D-01
 Coeff:     -0.202D-01 0.104D+01
 Gap=     0.321 Goal=   None    Shift=    0.000
 RMSDP=9.74D-09 MaxDP=1.82D-07 DE=-1.04D-11 OVMax= 2.99D-07

 SCF Done:  E(RPBE1PBE) =  -76.3438913582     A.U. after    8 cycles
            NFock=  8  Conv=0.97D-08     -V/T= 2.0045
 KE= 7.599922832331D+01 PE=-1.990072307944D+02 EE= 3.740136543990D+01
 Leave Link  502 at Mon Mar 20 17:33:39 2023, MaxMem=   754974720 cpu:               2.9 elap:               1.1
 (Enter /opt/cluster/programs/g16-c.01/g16/l601.exe)
 Copying SCF densities to generalized density rwf, IOpCl= 0 IROHF=0.

 **********************************************************************

            Population analysis using the SCF Density.

 **********************************************************************

 Orbital symmetries:
       Occupied  (A') (A') (A') (A') (A")
       Virtual   (A') (A') (A') (A") (A') (A') (A') (A') (A') (A")
                 (A") (A') (A') (A') (A') (A') (A") (A') (A") (A')
                 (A") (A') (A') (A") (A') (A') (A") (A') (A') (A')
                 (A') (A") (A') (A") (A') (A')
 The electronic state is 1-A'.
 Alpha  occ. eigenvalues --  -19.23693  -1.06705  -0.51059  -0.45018  -0.33740
 Alpha virt. eigenvalues --   -0.01636   0.03466   0.10625   0.13323   0.14414
 Alpha virt. eigenvalues --    0.17002   0.18496   0.26543   0.27758   0.29883
 Alpha virt. eigenvalues --    0.31314   0.47203   0.49900   0.55363   0.60618
 Alpha virt. eigenvalues --    0.78735   0.92988   0.93738   0.96484   1.06363
 Alpha virt. eigenvalues --    1.19197   1.19590   1.38388   1.74444   1.78048
 Alpha virt. eigenvalues --    1.84718   1.89311   2.18476   2.36012   2.43499
 Alpha virt. eigenvalues --    2.75907   3.30586   3.31967   3.33236   3.61965
 Alpha virt. eigenvalues --    3.92439
          Condensed to atoms (all electrons):
               1          2          3
     1  O    7.603112   0.321318   0.292663
     2  H    0.321318   0.650148  -0.038645
     3  H    0.292663  -0.038645   0.596068
 Mulliken charges:
               1
     1  O   -0.217093
     2  H    0.067179
     3  H    0.149914
 Sum of Mulliken charges =   0.00000
 Mulliken charges with hydrogens summed into heavy atoms:
               1
     1  O    0.000000
 Electronic spatial extent (au):  <R**2>=             19.8797
 Charge=             -0.0000 electrons
 Dipole moment (field-independent basis, Debye):
    X=              0.0656    Y=             -2.1323    Z=              0.0000  Tot=              2.1333
 Quadrupole moment (field-independent basis, Debye-Ang):
   XX=             -5.3201   YY=             -5.8233   ZZ=             -7.7077
   XY=              0.1604   XZ=              0.0000   YZ=              0.0000
 Traceless Quadrupole moment (field-independent basis, Debye-Ang):
   XX=              0.9636   YY=              0.4604   ZZ=             -1.4240
   XY=              0.1604   XZ=              0.0000   YZ=              0.0000
 Octapole moment (field-independent basis, Debye-Ang**2):
  XXX=              0.1706  YYY=             -1.3771  ZZZ=              0.0000  XYY=             -0.1348
  XXY=             -1.1022  XXZ=              0.0000  XZZ=              0.0594  YZZ=             -0.2616
  YYZ=              0.0000  XYZ=              0.0000
 Hexadecapole moment (field-independent basis, Debye-Ang**3):
 XXXX=             -7.0098 YYYY=             -8.0468 ZZZZ=             -7.4874 XXXY=             -0.0968
 XXXZ=              0.0000 YYYX=              0.0106 YYYZ=              0.0000 ZZZX=              0.0000
 ZZZY=              0.0000 XXYY=             -2.0811 XXZZ=             -2.5707 YYZZ=             -2.6917
 XXYZ=              0.0000 YYXZ=              0.0000 ZZXY=             -0.0650
 N-N= 9.262745672945D+00 E-N=-1.990072274356D+02  KE= 7.599922832331D+01
 Symmetry A'   KE= 7.154591508317D+01
 Symmetry A"   KE= 4.453313240142D+00
 No NMR shielding tensors so no spin-rotation constants.
 Leave Link  601 at Mon Mar 20 17:33:40 2023, MaxMem=   754974720 cpu:               1.3 elap:               0.6
 (Enter /opt/cluster/programs/g16-c.01/g16/l9999.exe)
 Unable to Open any file for archive entry.
 1\1\GINC-NODE60\SP\RPBE1PBE\Aug-CC-pVDZ\H2O1\BOITTIER\20-Mar-2023\0\\#
 P PBE1PBE/aug-cc-pVDZ scf(maxcycle=200)\\Gaussian input\\0,1\O,0,0.,0.
 11751,0.\H,0,0.7183372325,-0.4395112028,0.\H,0,-0.5382848041,-0.735912
 7966,0.\\Version=ES64L-G16RevC.01\State=1-A'\HF=-76.3438914\RMSD=9.738
 e-09\Dipole=0.1318381,-0.8288914,0.\Quadrupole=0.6804617,0.3782562,-1.
 0587179,0.1624502,0.,0.\PG=CS [SG(H2O1)]\\@
 The archive entry for this job was punched.


 ALL MY ATTEMPTS TO ADAPT THE THEORETICAL FOUNDATIONS OF PHYSICS
 TO THESE NEW NOTIONS FAILED COMPLETELY. IT WAS AS IF THE GROUND HAD
 BEEN PULLED OUT FROM UNDER ONE WITH NO FIRM FOUNDATION TO BE SEEN ANYWHERE,
 UPON WHICH ONE COULD HAVE BUILT.  -- A.EINSTEIN
 Job cpu time:       0 days  0 hours  0 minutes  8.9 seconds.
 Elapsed time:       0 days  0 hours  0 minutes  3.9 seconds.
 File lengths (MBytes):  RWF=      6 Int=      0 D2E=      0 Chk=      1 Scr=      1
 Normal termination of Gaussian 16 at Mon Mar 20 17:33:40 2023.
