 Entering Gaussian System, Link 0=/opt/cluster/programs/g16-c.01/g16/g16
 Input=/scratch/boittier/jobs/tmp.7262471/gaussian_147_water_b3lyp_pdz.com
 Output=/scratch/boittier/jobs/tmp.7262471/gaussian_147_water_b3lyp_pdz.out
 Initial command:
 /opt/cluster/programs/g16-c.01/g16/l1.exe "/scratch/boittier/jobs/tmp.7262471/Gau-155378.inp" -scrdir="/scratch/boittier/jobs/tmp.7262471/"
 Entering Link 1 = /opt/cluster/programs/g16-c.01/g16/l1.exe PID=    155379.
  
 Copyright (c) 1988-2019, Gaussian, Inc.  All Rights Reserved.
  
 This is part of the Gaussian(R) 16 program.  It is based on
 the Gaussian(R) 09 system (copyright 2009, Gaussian, Inc.),
 the Gaussian(R) 03 system (copyright 2003, Gaussian, Inc.),
 the Gaussian(R) 98 system (copyright 1998, Gaussian, Inc.),
 the Gaussian(R) 94 system (copyright 1995, Gaussian, Inc.),
 the Gaussian 92(TM) system (copyright 1992, Gaussian, Inc.),
 the Gaussian 90(TM) system (copyright 1990, Gaussian, Inc.),
 the Gaussian 88(TM) system (copyright 1988, Gaussian, Inc.),
 the Gaussian 86(TM) system (copyright 1986, Carnegie Mellon
 University), and the Gaussian 82(TM) system (copyright 1983,
 Carnegie Mellon University). Gaussian is a federally registered
 trademark of Gaussian, Inc.
  
 This software contains proprietary and confidential information,
 including trade secrets, belonging to Gaussian, Inc.
  
 This software is provided under written license and may be
 used, copied, transmitted, or stored only in accord with that
 written license.
  
 The following legend is applicable only to US Government
 contracts under FAR:
  
                    RESTRICTED RIGHTS LEGEND
  
 Use, reproduction and disclosure by the US Government is
 subject to restrictions as set forth in subparagraphs (a)
 and (c) of the Commercial Computer Software - Restricted
 Rights clause in FAR 52.227-19.
  
 Gaussian, Inc.
 340 Quinnipiac St., Bldg. 40, Wallingford CT 06492
  
  
 ---------------------------------------------------------------
 Warning -- This program may not be used in any manner that
 competes with the business of Gaussian, Inc. or will provide
 assistance to any competitor of Gaussian, Inc.  The licensee
 of this program is prohibited from giving any competitor of
 Gaussian, Inc. access to this program.  By using this program,
 the user acknowledges that Gaussian, Inc. is engaged in the
 business of creating and licensing software in the field of
 computational chemistry and represents and warrants to the
 licensee that it is not a competitor of Gaussian, Inc. and that
 it will not use this program in any manner prohibited above.
 ---------------------------------------------------------------
  

 Cite this work as:
 Gaussian 16, Revision C.01,
 M. J. Frisch, G. W. Trucks, H. B. Schlegel, G. E. Scuseria, 
 M. A. Robb, J. R. Cheeseman, G. Scalmani, V. Barone, 
 G. A. Petersson, H. Nakatsuji, X. Li, M. Caricato, A. V. Marenich, 
 J. Bloino, B. G. Janesko, R. Gomperts, B. Mennucci, H. P. Hratchian, 
 J. V. Ortiz, A. F. Izmaylov, J. L. Sonnenberg, D. Williams-Young, 
 F. Ding, F. Lipparini, F. Egidi, J. Goings, B. Peng, A. Petrone, 
 T. Henderson, D. Ranasinghe, V. G. Zakrzewski, J. Gao, N. Rega, 
 G. Zheng, W. Liang, M. Hada, M. Ehara, K. Toyota, R. Fukuda, 
 J. Hasegawa, M. Ishida, T. Nakajima, Y. Honda, O. Kitao, H. Nakai, 
 T. Vreven, K. Throssell, J. A. Montgomery, Jr., J. E. Peralta, 
 F. Ogliaro, M. J. Bearpark, J. J. Heyd, E. N. Brothers, K. N. Kudin, 
 V. N. Staroverov, T. A. Keith, R. Kobayashi, J. Normand, 
 K. Raghavachari, A. P. Rendell, J. C. Burant, S. S. Iyengar, 
 J. Tomasi, M. Cossi, J. M. Millam, M. Klene, C. Adamo, R. Cammi, 
 J. W. Ochterski, R. L. Martin, K. Morokuma, O. Farkas, 
 J. B. Foresman, and D. J. Fox, Gaussian, Inc., Wallingford CT, 2019.
 
 ******************************************
 Gaussian 16:  ES64L-G16RevC.01  3-Jul-2019
                 8-Feb-2023 
 ******************************************
 %nproc=4
 Will use up to    4 processors via shared memory.
 %mem=5760MB
 %chk=gaussian_147_water_b3lyp_pdz.chk
 ---------------------------------
 #P B3LYP/6-31g* scf(maxcycle=200)
 ---------------------------------
 1/38=1,172=1/1;
 2/12=2,17=6,18=5,40=1/2;
 3/5=1,6=6,7=1,11=2,25=1,30=1,74=-5/1,2,3;
 4//1;
 5/5=2,7=200,38=5/2;
 6/7=2,8=2,9=2,10=2,28=1/1;
 99/5=1,9=1/99;
 Leave Link    1 at Wed Feb  8 14:52:12 2023, MaxMem=   754974720 cpu:               0.1 elap:               0.0
 (Enter /opt/cluster/programs/g16-c.01/g16/l101.exe)
 --------------
 Gaussian input
 --------------
 Symbolic Z-matrix:
 Charge =  0 Multiplicity = 1
 O                     0.        0.11751   0. 
 H                     0.79736  -0.50079   0. 
 H                    -0.69264  -0.54576   0. 
 
 ITRead=  0  0  0
 MicOpt= -1 -1 -1
 NAtoms=      3 NQM=        3 NQMF=       0 NMMI=      0 NMMIF=      0
                NMic=       0 NMicF=      0.
                    Isotopes and Nuclear Properties:
 (Nuclear quadrupole moments (NQMom) in fm**2, nuclear magnetic moments (NMagM)
  in nuclear magnetons)

  Atom         1           2           3
 IAtWgt=          16           1           1
 AtmWgt=  15.9949146   1.0078250   1.0078250
 NucSpn=           0           1           1
 AtZEff=  -0.0000000  -0.0000000  -0.0000000
 NQMom=    0.0000000   0.0000000   0.0000000
 NMagM=    0.0000000   2.7928460   2.7928460
 AtZNuc=   8.0000000   1.0000000   1.0000000
 Leave Link  101 at Wed Feb  8 14:52:12 2023, MaxMem=   754974720 cpu:               0.6 elap:               0.2
 (Enter /opt/cluster/programs/g16-c.01/g16/l202.exe)
                          Input orientation:                          
 ---------------------------------------------------------------------
 Center     Atomic      Atomic             Coordinates (Angstroms)
 Number     Number       Type             X           Y           Z
 ---------------------------------------------------------------------
      1          8           0        0.000000    0.117510    0.000000
      2          1           0        0.797362   -0.500790    0.000000
      3          1           0       -0.692644   -0.545758    0.000000
 ---------------------------------------------------------------------
                    Distance matrix (angstroms):
                    1          2          3
     1  O    0.000000
     2  H    1.009000   0.000000
     3  H    0.959000   1.490685   0.000000
 Stoichiometry    H2O
 Framework group  CS[SG(H2O)]
 Deg. of freedom     3
 Full point group                 CS      NOp   2
 Largest Abelian subgroup         CS      NOp   2
 Largest concise Abelian subgroup C1      NOp   1
                         Standard orientation:                         
 ---------------------------------------------------------------------
 Center     Atomic      Atomic             Coordinates (Angstroms)
 Number     Number       Type             X           Y           Z
 ---------------------------------------------------------------------
      1          8           0        0.000000    0.128584    0.000000
      2          1           0        0.744360   -0.552599    0.000000
      3          1           0       -0.744360   -0.476073   -0.000000
 ---------------------------------------------------------------------
 Rotational constants (GHZ):         688.2898438         449.0545999         271.7555989
 Leave Link  202 at Wed Feb  8 14:52:12 2023, MaxMem=   754974720 cpu:               0.1 elap:               0.0
 (Enter /opt/cluster/programs/g16-c.01/g16/l301.exe)
 Standard basis: 6-31G(d) (6D, 7F)
 Ernie: Thresh=  0.10000D-02 Tol=  0.10000D-05 Strict=F.
 There are    15 symmetry adapted cartesian basis functions of A'  symmetry.
 There are     4 symmetry adapted cartesian basis functions of A"  symmetry.
 There are    15 symmetry adapted basis functions of A'  symmetry.
 There are     4 symmetry adapted basis functions of A"  symmetry.
    19 basis functions,    36 primitive gaussians,    19 cartesian basis functions
     5 alpha electrons        5 beta electrons
       nuclear repulsion energy         8.9650545183 Hartrees.
 IExCor=  402 DFT=T Ex+Corr=B3LYP ExCW=0 ScaHFX=  0.200000
 ScaDFX=  0.800000  0.720000  1.000000  0.810000 ScalE2=  1.000000  1.000000
 IRadAn=      5 IRanWt=     -1 IRanGd=            0 ICorTp=0 IEmpDi=  4
 NAtoms=    3 NActive=    3 NUniq=    3 SFac= 1.00D+00 NAtFMM=   60 NAOKFM=F Big=F
 Integral buffers will be    131072 words long.
 Raffenetti 2 integral format.
 Two-electron integral symmetry is turned on.
 Leave Link  301 at Wed Feb  8 14:52:12 2023, MaxMem=   754974720 cpu:               0.1 elap:               0.0
 (Enter /opt/cluster/programs/g16-c.01/g16/l302.exe)
 NPDir=0 NMtPBC=     1 NCelOv=     1 NCel=       1 NClECP=     1 NCelD=      1
         NCelK=      1 NCelE2=     1 NClLst=     1 CellRange=     0.0.
 One-electron integrals computed using PRISM.
 One-electron integral symmetry used in STVInt
 NBasis=    19 RedAO= T EigKep=  2.32D-02  NBF=    15     4
 NBsUse=    19 1.00D-06 EigRej= -1.00D+00 NBFU=    15     4
 Precomputing XC quadrature grid using
 IXCGrd= 4 IRadAn=           5 IRanWt=          -1 IRanGd=           0 AccXCQ= 0.00D+00.
 Generated NRdTot=       0 NPtTot=           0 NUsed=           0 NTot=          32
 NSgBfM=    19    19    19    19    19 MxSgAt=     3 MxSgA2=     3.
 Leave Link  302 at Wed Feb  8 14:52:12 2023, MaxMem=   754974720 cpu:               0.5 elap:               0.1
 (Enter /opt/cluster/programs/g16-c.01/g16/l303.exe)
 DipDrv:  MaxL=1.
 Leave Link  303 at Wed Feb  8 14:52:13 2023, MaxMem=   754974720 cpu:               0.2 elap:               0.1
 (Enter /opt/cluster/programs/g16-c.01/g16/l401.exe)
 ExpMin= 1.61D-01 ExpMax= 5.48D+03 ExpMxC= 8.25D+02 IAcc=3 IRadAn=         5 AccDes= 0.00D+00
 Harris functional with IExCor=  402 and IRadAn=       5 diagonalized for initial guess.
 HarFok:  IExCor=  402 AccDes= 0.00D+00 IRadAn=         5 IDoV= 1 UseB2=F ITyADJ=14
 ICtDFT=  3500011 ScaDFX=  1.000000  1.000000  1.000000  1.000000
 FoFCou: FMM=F IPFlag=           0 FMFlag=      100000 FMFlg1=           0
         NFxFlg=           0 DoJE=T BraDBF=F KetDBF=T FulRan=T
         wScrn=  0.000000 ICntrl=       500 IOpCl=  0 I1Cent=   200000004 NGrid=           0
         NMat0=    1 NMatS0=      1 NMatT0=    0 NMatD0=    1 NMtDS0=    0 NMtDT0=    0
 Petite list used in FoFCou.
 Harris En= -76.4436451822895    
 JPrj=0 DoOrth=F DoCkMO=F.
 Initial guess orbital symmetries:
       Occupied  (A') (A') (A') (A') (A")
       Virtual   (A') (A') (A') (A') (A") (A') (A') (A') (A') (A")
                 (A") (A') (A') (A')
 The electronic state of the initial guess is 1-A'.
 Leave Link  401 at Wed Feb  8 14:52:13 2023, MaxMem=   754974720 cpu:               0.7 elap:               0.2
 (Enter /opt/cluster/programs/g16-c.01/g16/l502.exe)
 Keep R1 ints in memory in symmetry-blocked form, NReq=3470963.
 FoFCou: FMM=F IPFlag=           0 FMFlag=           0 FMFlg1=           0
         NFxFlg=           0 DoJE=F BraDBF=F KetDBF=F FulRan=T
         wScrn=  0.000000 ICntrl=       600 IOpCl=  0 I1Cent=           0 NGrid=           0
         NMat0=    1 NMatS0=    190 NMatT0=    0 NMatD0=    1 NMtDS0=    0 NMtDT0=    0
 Petite list used in FoFCou.
 Closed shell SCF:
 Using DIIS extrapolation, IDIIS=  1040.
 NGot=   754974720 LenX=   754962225 LenY=   754961343
 Requested convergence on RMS density matrix=1.00D-08 within 200 cycles.
 Requested convergence on MAX density matrix=1.00D-06.
 Requested convergence on             energy=1.00D-06.
 No special actions if energy rises.
 Integral accuracy reduced to 1.0D-05 until final iterations.

 Cycle   1  Pass 0  IDiag  1:
 E= -76.3299112568304    
 DIIS: error= 7.51D-02 at cycle   1 NSaved=   1.
 NSaved= 1 IEnMin= 1 EnMin= -76.3299112568304     IErMin= 1 ErrMin= 7.51D-02
 ErrMax= 7.51D-02  0.00D+00 EMaxC= 1.00D-01 BMatC= 1.02D-01 BMatP= 1.02D-01
 IDIUse=3 WtCom= 2.49D-01 WtEn= 7.51D-01
 Coeff-Com:  0.100D+01
 Coeff-En:   0.100D+01
 Coeff:      0.100D+01
 Gap=     0.204 Goal=   None    Shift=    0.000
 GapD=    0.204 DampG=1.000 DampE=0.500 DampFc=0.5000 IDamp=-1.
 Damping current iteration by 5.00D-01
 RMSDP=3.08D-02 MaxDP=2.50D-01              OVMax= 2.12D-01

 Cycle   2  Pass 0  IDiag  1:
 E= -76.3545390902325     Delta-E=       -0.024627833402 Rises=F Damp=T
 DIIS: error= 2.10D-02 at cycle   2 NSaved=   2.
 NSaved= 2 IEnMin= 2 EnMin= -76.3545390902325     IErMin= 2 ErrMin= 2.10D-02
 ErrMax= 2.10D-02  0.00D+00 EMaxC= 1.00D-01 BMatC= 7.48D-03 BMatP= 1.02D-01
 IDIUse=3 WtCom= 7.90D-01 WtEn= 2.10D-01
 Coeff-Com:  0.200D+00 0.800D+00
 Coeff-En:   0.322D+00 0.678D+00
 Coeff:      0.226D+00 0.774D+00
 Gap=     0.334 Goal=   None    Shift=    0.000
 RMSDP=3.95D-03 MaxDP=4.37D-02 DE=-2.46D-02 OVMax= 1.18D-01

 Cycle   3  Pass 0  IDiag  1:
 E= -76.4067070982062     Delta-E=       -0.052168007974 Rises=F Damp=F
 DIIS: error= 3.98D-03 at cycle   3 NSaved=   3.
 NSaved= 3 IEnMin= 3 EnMin= -76.4067070982062     IErMin= 3 ErrMin= 3.98D-03
 ErrMax= 3.98D-03  0.00D+00 EMaxC= 1.00D-01 BMatC= 2.91D-04 BMatP= 7.48D-03
 IDIUse=3 WtCom= 9.60D-01 WtEn= 3.98D-02
 Coeff-Com:  0.441D-01-0.291D-01 0.985D+00
 Coeff-En:   0.000D+00 0.000D+00 0.100D+01
 Coeff:      0.423D-01-0.280D-01 0.986D+00
 Gap=     0.348 Goal=   None    Shift=    0.000
 RMSDP=6.04D-04 MaxDP=5.38D-03 DE=-5.22D-02 OVMax= 4.15D-03

 Cycle   4  Pass 0  IDiag  1:
 E= -76.4069083752307     Delta-E=       -0.000201277024 Rises=F Damp=F
 DIIS: error= 3.47D-04 at cycle   4 NSaved=   4.
 NSaved= 4 IEnMin= 4 EnMin= -76.4069083752307     IErMin= 4 ErrMin= 3.47D-04
 ErrMax= 3.47D-04  0.00D+00 EMaxC= 1.00D-01 BMatC= 1.98D-06 BMatP= 2.91D-04
 IDIUse=3 WtCom= 9.97D-01 WtEn= 3.47D-03
 Coeff-Com:  0.731D-02-0.199D-01 0.225D+00 0.788D+00
 Coeff-En:   0.000D+00 0.000D+00 0.000D+00 0.100D+01
 Coeff:      0.728D-02-0.198D-01 0.224D+00 0.789D+00
 Gap=     0.348 Goal=   None    Shift=    0.000
 RMSDP=4.16D-05 MaxDP=2.49D-04 DE=-2.01D-04 OVMax= 3.26D-04

 Cycle   5  Pass 0  IDiag  1:
 E= -76.4069098156279     Delta-E=       -0.000001440397 Rises=F Damp=F
 DIIS: error= 6.31D-05 at cycle   5 NSaved=   5.
 NSaved= 5 IEnMin= 5 EnMin= -76.4069098156279     IErMin= 5 ErrMin= 6.31D-05
 ErrMax= 6.31D-05  0.00D+00 EMaxC= 1.00D-01 BMatC= 5.93D-08 BMatP= 1.98D-06
 IDIUse=1 WtCom= 1.00D+00 WtEn= 0.00D+00
 Coeff-Com:  0.648D-03-0.493D-03 0.189D-03 0.365D-03 0.999D+00
 Coeff:      0.648D-03-0.493D-03 0.189D-03 0.365D-03 0.999D+00
 Gap=     0.348 Goal=   None    Shift=    0.000
 RMSDP=1.01D-05 MaxDP=9.43D-05 DE=-1.44D-06 OVMax= 5.96D-05

 Cycle   6  Pass 0  IDiag  1:
 E= -76.4069098596415     Delta-E=       -0.000000044014 Rises=F Damp=F
 DIIS: error= 9.69D-07 at cycle   6 NSaved=   6.
 NSaved= 6 IEnMin= 6 EnMin= -76.4069098596415     IErMin= 6 ErrMin= 9.69D-07
 ErrMax= 9.69D-07  0.00D+00 EMaxC= 1.00D-01 BMatC= 1.02D-11 BMatP= 5.93D-08
 IDIUse=1 WtCom= 1.00D+00 WtEn= 0.00D+00
 Coeff-Com: -0.256D-04 0.254D-04-0.428D-03-0.117D-02-0.201D-01 0.102D+01
 Coeff:     -0.256D-04 0.254D-04-0.428D-03-0.117D-02-0.201D-01 0.102D+01
 Gap=     0.348 Goal=   None    Shift=    0.000
 RMSDP=2.06D-07 MaxDP=1.57D-06 DE=-4.40D-08 OVMax= 1.67D-06

 Initial convergence to 1.0D-05 achieved.  Increase integral accuracy.
 Cycle   7  Pass 1  IDiag  1:
 E= -76.4069112731104     Delta-E=       -0.000001413469 Rises=F Damp=F
 DIIS: error= 2.74D-07 at cycle   1 NSaved=   1.
 NSaved= 1 IEnMin= 1 EnMin= -76.4069112731104     IErMin= 1 ErrMin= 2.74D-07
 ErrMax= 2.74D-07  0.00D+00 EMaxC= 1.00D-01 BMatC= 2.07D-12 BMatP= 2.07D-12
 IDIUse=1 WtCom= 1.00D+00 WtEn= 0.00D+00
 Coeff-Com:  0.100D+01
 Coeff:      0.100D+01
 Gap=     0.348 Goal=   None    Shift=    0.000
 RMSDP=2.06D-07 MaxDP=1.57D-06 DE=-1.41D-06 OVMax= 5.26D-07

 Cycle   8  Pass 1  IDiag  1:
 E= -76.4069112731115     Delta-E=       -0.000000000001 Rises=F Damp=F
 DIIS: error= 1.67D-07 at cycle   2 NSaved=   2.
 NSaved= 2 IEnMin= 2 EnMin= -76.4069112731115     IErMin= 2 ErrMin= 1.67D-07
 ErrMax= 1.67D-07  0.00D+00 EMaxC= 1.00D-01 BMatC= 7.32D-13 BMatP= 2.07D-12
 IDIUse=1 WtCom= 1.00D+00 WtEn= 0.00D+00
 Coeff-Com:  0.345D+00 0.655D+00
 Coeff:      0.345D+00 0.655D+00
 Gap=     0.348 Goal=   None    Shift=    0.000
 RMSDP=4.60D-08 MaxDP=3.30D-07 DE=-1.17D-12 OVMax= 3.45D-07

 Cycle   9  Pass 1  IDiag  1:
 E= -76.4069112731119     Delta-E=       -0.000000000000 Rises=F Damp=F
 DIIS: error= 1.19D-07 at cycle   3 NSaved=   3.
 NSaved= 3 IEnMin= 3 EnMin= -76.4069112731119     IErMin= 3 ErrMin= 1.19D-07
 ErrMax= 1.19D-07  0.00D+00 EMaxC= 1.00D-01 BMatC= 2.19D-13 BMatP= 7.32D-13
 IDIUse=1 WtCom= 1.00D+00 WtEn= 0.00D+00
 Coeff-Com:  0.697D-01 0.363D+00 0.568D+00
 Coeff:      0.697D-01 0.363D+00 0.568D+00
 Gap=     0.348 Goal=   None    Shift=    0.000
 RMSDP=1.72D-08 MaxDP=1.14D-07 DE=-3.98D-13 OVMax= 1.22D-07

 Cycle  10  Pass 1  IDiag  1:
 E= -76.4069112731120     Delta-E=       -0.000000000000 Rises=F Damp=F
 DIIS: error= 1.24D-08 at cycle   4 NSaved=   4.
 NSaved= 4 IEnMin= 4 EnMin= -76.4069112731120     IErMin= 4 ErrMin= 1.24D-08
 ErrMax= 1.24D-08  0.00D+00 EMaxC= 1.00D-01 BMatC= 3.55D-15 BMatP= 2.19D-13
 IDIUse=1 WtCom= 1.00D+00 WtEn= 0.00D+00
 Coeff-Com: -0.880D-02 0.582D-01 0.169D+00 0.781D+00
 Coeff:     -0.880D-02 0.582D-01 0.169D+00 0.781D+00
 Gap=     0.348 Goal=   None    Shift=    0.000
 RMSDP=2.20D-09 MaxDP=1.04D-08 DE=-7.11D-14 OVMax= 1.77D-08

 SCF Done:  E(RB3LYP) =  -76.4069112731     A.U. after   10 cycles
            NFock= 10  Conv=0.22D-08     -V/T= 2.0082
 KE= 7.578353581654D+01 PE=-1.984778416800D+02 EE= 3.732234007207D+01
 Leave Link  502 at Wed Feb  8 14:52:13 2023, MaxMem=   754974720 cpu:               1.1 elap:               0.3
 (Enter /opt/cluster/programs/g16-c.01/g16/l601.exe)
 Copying SCF densities to generalized density rwf, IOpCl= 0 IROHF=0.

 **********************************************************************

            Population analysis using the SCF Density.

 **********************************************************************

 Orbital symmetries:
       Occupied  (A') (A') (A') (A') (A")
       Virtual   (A') (A') (A') (A') (A") (A') (A') (A') (A') (A")
                 (A") (A') (A') (A')
 The electronic state is 1-A'.
 Alpha  occ. eigenvalues --  -19.14341  -0.99657  -0.50256  -0.38201  -0.29199
 Alpha virt. eigenvalues --    0.05642   0.14166   0.74631   0.86096   0.88958
 Alpha virt. eigenvalues --    0.89732   1.05860   1.21217   1.71815   1.75316
 Alpha virt. eigenvalues --    1.77614   2.26185   2.54257   3.53514
          Condensed to atoms (all electrons):
               1          2          3
     1  O    8.287943   0.235589   0.237096
     2  H    0.235589   0.415213  -0.025779
     3  H    0.237096  -0.025779   0.403034
 Mulliken charges:
               1
     1  O   -0.760627
     2  H    0.374978
     3  H    0.385650
 Sum of Mulliken charges =   0.00000
 Mulliken charges with hydrogens summed into heavy atoms:
               1
     1  O    0.000000
 Electronic spatial extent (au):  <R**2>=             19.4139
 Charge=              0.0000 electrons
 Dipole moment (field-independent basis, Debye):
    X=             -0.0520    Y=             -2.1757    Z=             -0.0000  Tot=              2.1763
 Quadrupole moment (field-independent basis, Debye-Ang):
   XX=             -4.5104   YY=             -5.8538   ZZ=             -7.2349
   XY=             -0.0988   XZ=             -0.0000   YZ=             -0.0000
 Traceless Quadrupole moment (field-independent basis, Debye-Ang):
   XX=              1.3560   YY=              0.0126   ZZ=             -1.3686
   XY=             -0.0988   XZ=             -0.0000   YZ=             -0.0000
 Octapole moment (field-independent basis, Debye-Ang**2):
  XXX=             -0.1063  YYY=             -1.2906  ZZZ=             -0.0000  XYY=              0.0660
  XXY=             -1.2043  XXZ=             -0.0000  XZZ=             -0.0366  YZZ=             -0.3217
  YYZ=             -0.0000  XYZ=             -0.0000
 Hexadecapole moment (field-independent basis, Debye-Ang**3):
 XXXX=             -6.3429 YYYY=             -6.5119 ZZZZ=             -5.2510 XXXY=              0.0526
 XXXZ=             -0.0000 YYYX=              0.0193 YYYZ=             -0.0000 ZZZX=             -0.0000
 ZZZY=             -0.0000 XXYY=             -1.7611 XXZZ=             -2.1422 YYZZ=             -2.0273
 XXYZ=             -0.0000 YYXZ=             -0.0000 ZZXY=              0.0391
 N-N= 8.965054518288D+00 E-N=-1.984778414526D+02  KE= 7.578353581654D+01
 Symmetry A'   KE= 7.117413200239D+01
 Symmetry A"   KE= 4.609403814149D+00
 No NMR shielding tensors so no spin-rotation constants.
 Leave Link  601 at Wed Feb  8 14:52:13 2023, MaxMem=   754974720 cpu:               0.5 elap:               0.1
 (Enter /opt/cluster/programs/g16-c.01/g16/l9999.exe)
 Unable to Open any file for archive entry.
 1\1\GINC-NODE60\SP\RB3LYP\6-31G(d)\H2O1\BOITTIER\08-Feb-2023\0\\#P B3L
 YP/6-31g* scf(maxcycle=200)\\Gaussian input\\0,1\O,0,0.,0.11751,0.\H,0
 ,0.7973622306,-0.5007896629,0.\H,0,-0.6926442659,-0.5457583627,0.\\Ver
 sion=ES64L-G16RevC.01\State=1-A'\HF=-76.4069113\RMSD=2.200e-09\Dipole=
 0.0493367,-0.8548024,0.\Quadrupole=1.0134389,0.0040447,-1.0174837,0.00
 85768,0.,0.\PG=CS [SG(H2O1)]\\@
 The archive entry for this job was punched.


 BE CAREFUL NOT TO BECOME TOO GOOD OF A SONGBIRD OR 
 THEY'LL THROW YOU INTO A CAGE.

                                    -- SNOOPY TO WOODSTOCK
 Job cpu time:       0 days  0 hours  0 minutes  4.1 seconds.
 Elapsed time:       0 days  0 hours  0 minutes  1.1 seconds.
 File lengths (MBytes):  RWF=      6 Int=      0 D2E=      0 Chk=      1 Scr=      1
 Normal termination of Gaussian 16 at Wed Feb  8 14:52:13 2023.
