 Entering Gaussian System, Link 0=/opt/cluster/programs/g16-c.01/g16/g16
 Input=/scratch/boittier/jobs/tmp.7262401/gaussian_170_water_ccsdt_adz.com
 Output=/scratch/boittier/jobs/tmp.7262401/gaussian_170_water_ccsdt_adz.out
 Initial command:
 /opt/cluster/programs/g16-c.01/g16/l1.exe "/scratch/boittier/jobs/tmp.7262401/Gau-12795.inp" -scrdir="/scratch/boittier/jobs/tmp.7262401/"
 Entering Link 1 = /opt/cluster/programs/g16-c.01/g16/l1.exe PID=     12796.
  
 Copyright (c) 1988-2019, Gaussian, Inc.  All Rights Reserved.
  
 This is part of the Gaussian(R) 16 program.  It is based on
 the Gaussian(R) 09 system (copyright 2009, Gaussian, Inc.),
 the Gaussian(R) 03 system (copyright 2003, Gaussian, Inc.),
 the Gaussian(R) 98 system (copyright 1998, Gaussian, Inc.),
 the Gaussian(R) 94 system (copyright 1995, Gaussian, Inc.),
 the Gaussian 92(TM) system (copyright 1992, Gaussian, Inc.),
 the Gaussian 90(TM) system (copyright 1990, Gaussian, Inc.),
 the Gaussian 88(TM) system (copyright 1988, Gaussian, Inc.),
 the Gaussian 86(TM) system (copyright 1986, Carnegie Mellon
 University), and the Gaussian 82(TM) system (copyright 1983,
 Carnegie Mellon University). Gaussian is a federally registered
 trademark of Gaussian, Inc.
  
 This software contains proprietary and confidential information,
 including trade secrets, belonging to Gaussian, Inc.
  
 This software is provided under written license and may be
 used, copied, transmitted, or stored only in accord with that
 written license.
  
 The following legend is applicable only to US Government
 contracts under FAR:
  
                    RESTRICTED RIGHTS LEGEND
  
 Use, reproduction and disclosure by the US Government is
 subject to restrictions as set forth in subparagraphs (a)
 and (c) of the Commercial Computer Software - Restricted
 Rights clause in FAR 52.227-19.
  
 Gaussian, Inc.
 340 Quinnipiac St., Bldg. 40, Wallingford CT 06492
  
  
 ---------------------------------------------------------------
 Warning -- This program may not be used in any manner that
 competes with the business of Gaussian, Inc. or will provide
 assistance to any competitor of Gaussian, Inc.  The licensee
 of this program is prohibited from giving any competitor of
 Gaussian, Inc. access to this program.  By using this program,
 the user acknowledges that Gaussian, Inc. is engaged in the
 business of creating and licensing software in the field of
 computational chemistry and represents and warrants to the
 licensee that it is not a competitor of Gaussian, Inc. and that
 it will not use this program in any manner prohibited above.
 ---------------------------------------------------------------
  

 Cite this work as:
 Gaussian 16, Revision C.01,
 M. J. Frisch, G. W. Trucks, H. B. Schlegel, G. E. Scuseria, 
 M. A. Robb, J. R. Cheeseman, G. Scalmani, V. Barone, 
 G. A. Petersson, H. Nakatsuji, X. Li, M. Caricato, A. V. Marenich, 
 J. Bloino, B. G. Janesko, R. Gomperts, B. Mennucci, H. P. Hratchian, 
 J. V. Ortiz, A. F. Izmaylov, J. L. Sonnenberg, D. Williams-Young, 
 F. Ding, F. Lipparini, F. Egidi, J. Goings, B. Peng, A. Petrone, 
 T. Henderson, D. Ranasinghe, V. G. Zakrzewski, J. Gao, N. Rega, 
 G. Zheng, W. Liang, M. Hada, M. Ehara, K. Toyota, R. Fukuda, 
 J. Hasegawa, M. Ishida, T. Nakajima, Y. Honda, O. Kitao, H. Nakai, 
 T. Vreven, K. Throssell, J. A. Montgomery, Jr., J. E. Peralta, 
 F. Ogliaro, M. J. Bearpark, J. J. Heyd, E. N. Brothers, K. N. Kudin, 
 V. N. Staroverov, T. A. Keith, R. Kobayashi, J. Normand, 
 K. Raghavachari, A. P. Rendell, J. C. Burant, S. S. Iyengar, 
 J. Tomasi, M. Cossi, J. M. Millam, M. Klene, C. Adamo, R. Cammi, 
 J. W. Ochterski, R. L. Martin, K. Morokuma, O. Farkas, 
 J. B. Foresman, and D. J. Fox, Gaussian, Inc., Wallingford CT, 2019.
 
 ******************************************
 Gaussian 16:  ES64L-G16RevC.01  3-Jul-2019
                 8-Feb-2023 
 ******************************************
 %nproc=4
 Will use up to    4 processors via shared memory.
 %mem=5760MB
 %chk=gaussian_170_water_ccsdt_adz.chk
 ----------------------------------------
 #P CCSD(T)/aug-cc-pVDZ scf(maxcycle=200)
 ----------------------------------------
 1/38=1,172=1/1;
 2/12=2,17=6,18=5,40=1/2;
 3/5=16,7=10,11=9,25=1,30=1/1,2,3;
 4//1;
 5/5=2,7=200,38=5/2;
 8/6=4,9=120000,10=1/1,4;
 9/5=7,14=2/13;
 6/7=2,8=2,9=2,10=2/1;
 99/5=1,9=1/99;
 Leave Link    1 at Wed Feb  8 14:51:09 2023, MaxMem=   754974720 cpu:               0.1 elap:               0.0
 (Enter /opt/cluster/programs/g16-c.01/g16/l101.exe)
 --------------
 Gaussian input
 --------------
 Symbolic Z-matrix:
 Charge =  0 Multiplicity = 1
 O                     0.        0.11751   0. 
 H                     0.79736  -0.50079   0. 
 H                    -0.79771  -0.50034   0. 
 
 ITRead=  0  0  0
 MicOpt= -1 -1 -1
 NAtoms=      3 NQM=        3 NQMF=       0 NMMI=      0 NMMIF=      0
                NMic=       0 NMicF=      0.
                    Isotopes and Nuclear Properties:
 (Nuclear quadrupole moments (NQMom) in fm**2, nuclear magnetic moments (NMagM)
  in nuclear magnetons)

  Atom         1           2           3
 IAtWgt=          16           1           1
 AtmWgt=  15.9949146   1.0078250   1.0078250
 NucSpn=           0           1           1
 AtZEff=  -0.0000000  -0.0000000  -0.0000000
 NQMom=    0.0000000   0.0000000   0.0000000
 NMagM=    0.0000000   2.7928460   2.7928460
 AtZNuc=   8.0000000   1.0000000   1.0000000
 Leave Link  101 at Wed Feb  8 14:51:09 2023, MaxMem=   754974720 cpu:               0.5 elap:               0.2
 (Enter /opt/cluster/programs/g16-c.01/g16/l202.exe)
                          Input orientation:                          
 ---------------------------------------------------------------------
 Center     Atomic      Atomic             Coordinates (Angstroms)
 Number     Number       Type             X           Y           Z
 ---------------------------------------------------------------------
      1          8           0        0.000000    0.117510    0.000000
      2          1           0        0.797362   -0.500790    0.000000
      3          1           0       -0.797710   -0.500341    0.000000
 ---------------------------------------------------------------------
                    Distance matrix (angstroms):
                    1          2          3
     1  O    0.000000
     2  H    1.009000   0.000000
     3  H    1.009000   1.595072   0.000000
 Stoichiometry    H2O
 Framework group  C2V[C2(O),SGV(H2)]
 Deg. of freedom     2
 Full point group                 C2V     NOp   4
 Largest Abelian subgroup         C2V     NOp   4
 Largest concise Abelian subgroup C2      NOp   2
                         Standard orientation:                         
 ---------------------------------------------------------------------
 Center     Atomic      Atomic             Coordinates (Angstroms)
 Number     Number       Type             X           Y           Z
 ---------------------------------------------------------------------
      1          8           0        0.000000    0.000000    0.123615
      2          1           0        0.000000    0.797536   -0.494460
      3          1           0       -0.000000   -0.797536   -0.494460
 ---------------------------------------------------------------------
 Rotational constants (GHZ):         739.0344925         394.1860806         257.0700859
 Leave Link  202 at Wed Feb  8 14:51:09 2023, MaxMem=   754974720 cpu:               0.1 elap:               0.0
 (Enter /opt/cluster/programs/g16-c.01/g16/l301.exe)
 Standard basis: Aug-CC-pVDZ (5D, 7F)
 Ernie: Thresh=  0.10000D-02 Tol=  0.10000D-05 Strict=F.
 Ernie:  2 primitive shells out of 39 were deleted.
 There are    20 symmetry adapted cartesian basis functions of A1  symmetry.
 There are     4 symmetry adapted cartesian basis functions of A2  symmetry.
 There are     7 symmetry adapted cartesian basis functions of B1  symmetry.
 There are    12 symmetry adapted cartesian basis functions of B2  symmetry.
 There are    18 symmetry adapted basis functions of A1  symmetry.
 There are     4 symmetry adapted basis functions of A2  symmetry.
 There are     7 symmetry adapted basis functions of B1  symmetry.
 There are    12 symmetry adapted basis functions of B2  symmetry.
    41 basis functions,    65 primitive gaussians,    43 cartesian basis functions
     5 alpha electrons        5 beta electrons
       nuclear repulsion energy         8.7230710523 Hartrees.
 IExCor=    0 DFT=F Ex=HF Corr=None ExCW=0 ScaHFX=  1.000000
 ScaDFX=  1.000000  1.000000  1.000000  1.000000 ScalE2=  1.000000  1.000000
 IRadAn=      5 IRanWt=     -1 IRanGd=            0 ICorTp=0 IEmpDi=  4
 NAtoms=    3 NActive=    3 NUniq=    2 SFac= 2.25D+00 NAtFMM=   60 NAOKFM=F Big=F
 Integral buffers will be    131072 words long.
 Raffenetti 1 integral format.
 Two-electron integral symmetry is turned on.
 Leave Link  301 at Wed Feb  8 14:51:09 2023, MaxMem=   754974720 cpu:               0.1 elap:               0.0
 (Enter /opt/cluster/programs/g16-c.01/g16/l302.exe)
 NPDir=0 NMtPBC=     1 NCelOv=     1 NCel=       1 NClECP=     1 NCelD=      1
         NCelK=      1 NCelE2=     1 NClLst=     1 CellRange=     0.0.
 One-electron integrals computed using PRISM.
 One-electron integral symmetry used in STVInt
 NBasis=    41 RedAO= T EigKep=  3.25D-03  NBF=    18     4     7    12
 NBsUse=    41 1.00D-06 EigRej= -1.00D+00 NBFU=    18     4     7    12
 Leave Link  302 at Wed Feb  8 14:51:09 2023, MaxMem=   754974720 cpu:               0.4 elap:               0.1
 (Enter /opt/cluster/programs/g16-c.01/g16/l303.exe)
 DipDrv:  MaxL=1.
 Leave Link  303 at Wed Feb  8 14:51:09 2023, MaxMem=   754974720 cpu:               0.2 elap:               0.1
 (Enter /opt/cluster/programs/g16-c.01/g16/l401.exe)
 ExpMin= 2.97D-02 ExpMax= 1.17D+04 ExpMxC= 4.01D+02 IAcc=3 IRadAn=         5 AccDes= 0.00D+00
 Harris functional with IExCor=  205 and IRadAn=       5 diagonalized for initial guess.
 HarFok:  IExCor=  205 AccDes= 0.00D+00 IRadAn=         5 IDoV= 1 UseB2=F ITyADJ=14
 ICtDFT=  3500011 ScaDFX=  1.000000  1.000000  1.000000  1.000000
 FoFCou: FMM=F IPFlag=           0 FMFlag=      100000 FMFlg1=           0
         NFxFlg=           0 DoJE=T BraDBF=F KetDBF=T FulRan=T
         wScrn=  0.000000 ICntrl=       500 IOpCl=  0 I1Cent=   200000004 NGrid=           0
         NMat0=    1 NMatS0=      1 NMatT0=    0 NMatD0=    1 NMtDS0=    0 NMtDT0=    0
 Petite list used in FoFCou.
 Harris En= -76.1190625570324    
 JPrj=0 DoOrth=F DoCkMO=F.
 Initial guess orbital symmetries:
       Occupied  (A1) (A1) (B2) (A1) (B1)
       Virtual   (A1) (B2) (A1) (B1) (B2) (A1) (B2) (A1) (A2) (A1)
                 (B1) (B2) (A1) (B2) (B2) (A1) (B1) (A1) (A2) (A1)
                 (B1) (B2) (A1) (B2) (A2) (B1) (B2) (A1) (A1) (B2)
                 (A1) (B1) (A1) (A2) (A1) (B2)
 The electronic state of the initial guess is 1-A1.
 Leave Link  401 at Wed Feb  8 14:51:09 2023, MaxMem=   754974720 cpu:               0.5 elap:               0.1
 (Enter /opt/cluster/programs/g16-c.01/g16/l502.exe)
 Keep R1 ints in memory in symmetry-blocked form, NReq=1211474.
 FoFCou: FMM=F IPFlag=           0 FMFlag=           0 FMFlg1=           0
         NFxFlg=           0 DoJE=F BraDBF=F KetDBF=F FulRan=T
         wScrn=  0.000000 ICntrl=       600 IOpCl=  0 I1Cent=           0 NGrid=           0
         NMat0=    1 NMatS0=    861 NMatT0=    0 NMatD0=    1 NMtDS0=    0 NMtDT0=    0
 Petite list used in FoFCou.
 Closed shell SCF:
 Using DIIS extrapolation, IDIIS=  1040.
 NGot=   754974720 LenX=   754868251 LenY=   754865961
 Requested convergence on RMS density matrix=1.00D-08 within 200 cycles.
 Requested convergence on MAX density matrix=1.00D-06.
 Requested convergence on             energy=1.00D-06.
 No special actions if energy rises.

 Cycle   1  Pass 1  IDiag  1:
 E= -75.9618155118296    
 DIIS: error= 4.84D-02 at cycle   1 NSaved=   1.
 NSaved= 1 IEnMin= 1 EnMin= -75.9618155118296     IErMin= 1 ErrMin= 4.84D-02
 ErrMax= 4.84D-02  0.00D+00 EMaxC= 1.00D-01 BMatC= 1.09D-01 BMatP= 1.09D-01
 IDIUse=3 WtCom= 5.16D-01 WtEn= 4.84D-01
 Coeff-Com:  0.100D+01
 Coeff-En:   0.100D+01
 Coeff:      0.100D+01
 Gap=     0.461 Goal=   None    Shift=    0.000
 GapD=    0.461 DampG=2.000 DampE=0.500 DampFc=1.0000 IDamp=-1.
 RMSDP=6.05D-03 MaxDP=1.12D-01              OVMax= 1.22D-01

 Cycle   2  Pass 1  IDiag  1:
 E= -76.0009059215326     Delta-E=       -0.039090409703 Rises=F Damp=F
 DIIS: error= 4.09D-02 at cycle   2 NSaved=   2.
 NSaved= 2 IEnMin= 2 EnMin= -76.0009059215326     IErMin= 2 ErrMin= 4.09D-02
 ErrMax= 4.09D-02  0.00D+00 EMaxC= 1.00D-01 BMatC= 4.55D-02 BMatP= 1.09D-01
 IDIUse=3 WtCom= 5.91D-01 WtEn= 4.09D-01
 Coeff-Com:  0.382D+00 0.618D+00
 Coeff-En:   0.244D+00 0.756D+00
 Coeff:      0.326D+00 0.674D+00
 Gap=     0.555 Goal=   None    Shift=    0.000
 RMSDP=2.95D-03 MaxDP=5.41D-02 DE=-3.91D-02 OVMax= 5.92D-02

 Cycle   3  Pass 1  IDiag  1:
 E= -76.0328467747622     Delta-E=       -0.031940853230 Rises=F Damp=F
 DIIS: error= 4.49D-03 at cycle   3 NSaved=   3.
 NSaved= 3 IEnMin= 3 EnMin= -76.0328467747622     IErMin= 3 ErrMin= 4.49D-03
 ErrMax= 4.49D-03  0.00D+00 EMaxC= 1.00D-01 BMatC= 1.07D-03 BMatP= 4.55D-02
 IDIUse=3 WtCom= 9.55D-01 WtEn= 4.49D-02
 Coeff-Com: -0.391D-01 0.875D-01 0.952D+00
 Coeff-En:   0.000D+00 0.000D+00 0.100D+01
 Coeff:     -0.374D-01 0.836D-01 0.954D+00
 Gap=     0.538 Goal=   None    Shift=    0.000
 RMSDP=4.60D-04 MaxDP=8.30D-03 DE=-3.19D-02 OVMax= 9.75D-03

 Cycle   4  Pass 1  IDiag  1:
 E= -76.0336984244975     Delta-E=       -0.000851649735 Rises=F Damp=F
 DIIS: error= 7.91D-04 at cycle   4 NSaved=   4.
 NSaved= 4 IEnMin= 4 EnMin= -76.0336984244975     IErMin= 4 ErrMin= 7.91D-04
 ErrMax= 7.91D-04  0.00D+00 EMaxC= 1.00D-01 BMatC= 9.48D-06 BMatP= 1.07D-03
 IDIUse=3 WtCom= 9.92D-01 WtEn= 7.91D-03
 Coeff-Com:  0.888D-02-0.429D-01-0.334D+00 0.137D+01
 Coeff-En:   0.000D+00 0.000D+00 0.000D+00 0.100D+01
 Coeff:      0.881D-02-0.425D-01-0.331D+00 0.137D+01
 Gap=     0.539 Goal=   None    Shift=    0.000
 RMSDP=1.25D-04 MaxDP=1.50D-03 DE=-8.52D-04 OVMax= 2.39D-03

 Cycle   5  Pass 1  IDiag  1:
 E= -76.0337226475730     Delta-E=       -0.000024223075 Rises=F Damp=F
 DIIS: error= 2.18D-04 at cycle   5 NSaved=   5.
 NSaved= 5 IEnMin= 5 EnMin= -76.0337226475730     IErMin= 5 ErrMin= 2.18D-04
 ErrMax= 2.18D-04  0.00D+00 EMaxC= 1.00D-01 BMatC= 4.44D-07 BMatP= 9.48D-06
 IDIUse=3 WtCom= 9.98D-01 WtEn= 2.18D-03
 Coeff-Com:  0.286D-03 0.253D-02 0.154D-01-0.261D+00 0.124D+01
 Coeff-En:   0.000D+00 0.000D+00 0.000D+00 0.000D+00 0.100D+01
 Coeff:      0.285D-03 0.253D-02 0.153D-01-0.260D+00 0.124D+01
 Gap=     0.540 Goal=   None    Shift=    0.000
 RMSDP=3.07D-05 MaxDP=4.87D-04 DE=-2.42D-05 OVMax= 6.69D-04

 Cycle   6  Pass 1  IDiag  1:
 E= -76.0337240311584     Delta-E=       -0.000001383585 Rises=F Damp=F
 DIIS: error= 4.36D-05 at cycle   6 NSaved=   6.
 NSaved= 6 IEnMin= 6 EnMin= -76.0337240311584     IErMin= 6 ErrMin= 4.36D-05
 ErrMax= 4.36D-05  0.00D+00 EMaxC= 1.00D-01 BMatC= 1.84D-08 BMatP= 4.44D-07
 IDIUse=1 WtCom= 1.00D+00 WtEn= 0.00D+00
 Coeff-Com: -0.441D-03 0.151D-02 0.126D-01-0.191D-01-0.252D+00 0.126D+01
 Coeff:     -0.441D-03 0.151D-02 0.126D-01-0.191D-01-0.252D+00 0.126D+01
 Gap=     0.540 Goal=   None    Shift=    0.000
 RMSDP=5.75D-06 MaxDP=1.21D-04 DE=-1.38D-06 OVMax= 1.60D-04

 Cycle   7  Pass 1  IDiag  1:
 E= -76.0337240895392     Delta-E=       -0.000000058381 Rises=F Damp=F
 DIIS: error= 7.27D-06 at cycle   7 NSaved=   7.
 NSaved= 7 IEnMin= 7 EnMin= -76.0337240895392     IErMin= 7 ErrMin= 7.27D-06
 ErrMax= 7.27D-06  0.00D+00 EMaxC= 1.00D-01 BMatC= 7.79D-10 BMatP= 1.84D-08
 IDIUse=1 WtCom= 1.00D+00 WtEn= 0.00D+00
 Coeff-Com:  0.154D-03-0.683D-03-0.578D-02 0.214D-01 0.328D-01-0.426D+00
 Coeff-Com:  0.138D+01
 Coeff:      0.154D-03-0.683D-03-0.578D-02 0.214D-01 0.328D-01-0.426D+00
 Coeff:      0.138D+01
 Gap=     0.540 Goal=   None    Shift=    0.000
 RMSDP=1.07D-06 MaxDP=2.06D-05 DE=-5.84D-08 OVMax= 3.03D-05

 Cycle   8  Pass 1  IDiag  1:
 E= -76.0337240915729     Delta-E=       -0.000000002034 Rises=F Damp=F
 DIIS: error= 9.80D-07 at cycle   8 NSaved=   8.
 NSaved= 8 IEnMin= 8 EnMin= -76.0337240915729     IErMin= 8 ErrMin= 9.80D-07
 ErrMax= 9.80D-07  0.00D+00 EMaxC= 1.00D-01 BMatC= 2.30D-11 BMatP= 7.79D-10
 IDIUse=1 WtCom= 1.00D+00 WtEn= 0.00D+00
 Coeff-Com: -0.350D-04 0.170D-03 0.151D-02-0.683D-02-0.148D-02 0.101D+00
 Coeff-Com: -0.476D+00 0.138D+01
 Coeff:     -0.350D-04 0.170D-03 0.151D-02-0.683D-02-0.148D-02 0.101D+00
 Coeff:     -0.476D+00 0.138D+01
 Gap=     0.540 Goal=   None    Shift=    0.000
 RMSDP=2.52D-07 MaxDP=3.38D-06 DE=-2.03D-09 OVMax= 4.82D-06

 Cycle   9  Pass 1  IDiag  1:
 E= -76.0337240916337     Delta-E=       -0.000000000061 Rises=F Damp=F
 DIIS: error= 1.19D-07 at cycle   9 NSaved=   9.
 NSaved= 9 IEnMin= 9 EnMin= -76.0337240916337     IErMin= 9 ErrMin= 1.19D-07
 ErrMax= 1.19D-07  0.00D+00 EMaxC= 1.00D-01 BMatC= 5.31D-13 BMatP= 2.30D-11
 IDIUse=1 WtCom= 1.00D+00 WtEn= 0.00D+00
 Coeff-Com:  0.624D-05-0.313D-04-0.298D-03 0.151D-02-0.211D-03-0.206D-01
 Coeff-Com:  0.116D+00-0.447D+00 0.135D+01
 Coeff:      0.624D-05-0.313D-04-0.298D-03 0.151D-02-0.211D-03-0.206D-01
 Coeff:      0.116D+00-0.447D+00 0.135D+01
 Gap=     0.540 Goal=   None    Shift=    0.000
 RMSDP=3.72D-08 MaxDP=4.10D-07 DE=-6.08D-11 OVMax= 7.35D-07

 Cycle  10  Pass 1  IDiag  1:
 E= -76.0337240916352     Delta-E=       -0.000000000001 Rises=F Damp=F
 DIIS: error= 3.03D-08 at cycle  10 NSaved=  10.
 NSaved=10 IEnMin=10 EnMin= -76.0337240916352     IErMin=10 ErrMin= 3.03D-08
 ErrMax= 3.03D-08  0.00D+00 EMaxC= 1.00D-01 BMatC= 2.69D-14 BMatP= 5.31D-13
 IDIUse=1 WtCom= 1.00D+00 WtEn= 0.00D+00
 Coeff-Com: -0.483D-06 0.263D-05 0.345D-04-0.240D-03 0.292D-03 0.223D-02
 Coeff-Com: -0.187D-01 0.898D-01-0.448D+00 0.137D+01
 Coeff:     -0.483D-06 0.263D-05 0.345D-04-0.240D-03 0.292D-03 0.223D-02
 Coeff:     -0.187D-01 0.898D-01-0.448D+00 0.137D+01
 Gap=     0.540 Goal=   None    Shift=    0.000
 RMSDP=8.29D-09 MaxDP=7.36D-08 DE=-1.49D-12 OVMax= 2.18D-07

 SCF Done:  E(RHF) =  -76.0337240916     A.U. after   10 cycles
            NFock= 10  Conv=0.83D-08     -V/T= 2.0039
 KE= 7.573960170803D+01 PE=-1.978726355491D+02 EE= 3.737623869715D+01
 Leave Link  502 at Wed Feb  8 14:51:10 2023, MaxMem=   754974720 cpu:               0.5 elap:               0.1
 (Enter /opt/cluster/programs/g16-c.01/g16/l801.exe)
 Windowed orbitals will be sorted by symmetry type.
 ExpMin= 2.97D-02 ExpMax= 1.17D+04 ExpMxC= 4.01D+02 IAcc=3 IRadAn=         5 AccDes= 0.00D+00
 HarFok:  IExCor=  205 AccDes= 0.00D+00 IRadAn=         5 IDoV=-2 UseB2=F ITyADJ=14
 ICtDFT= 12500011 ScaDFX=  1.000000  1.000000  1.000000  1.000000
 Largest valence mixing into a core orbital is  6.32D-05
 Largest core mixing into a valence orbital is  1.88D-05
 Range of M.O.s used for correlation:     2    41
 NBasis=    41 NAE=     5 NBE=     5 NFC=     1 NFV=     0
 NROrb=     40 NOA=     4 NOB=     4 NVA=    36 NVB=    36
 Leave Link  801 at Wed Feb  8 14:51:10 2023, MaxMem=   754974720 cpu:               0.2 elap:               0.1
 (Enter /opt/cluster/programs/g16-c.01/g16/l804.exe)
 Closed-shell transformation, MDV=   754974720 ITran=4 ISComp=2.
 Unit  1 TFree=         57018 TCopy=        140846.
 Semi-Direct transformation.
 ModeAB=           4 MOrb=             4 LenV=     754769467
 LASXX=        30213 LTotXX=       30213 LenRXX=       63236
 LTotAB=       33023 MaxLAS=      110560 LenRXY=           0
 NonZer=       93449 LenScr=      785920 LnRSAI=      110560
 LnScr1=      785920 LExtra=           0 Total=      1745636
 MaxDsk=          -1 SrtSym=           T ITran=            4
 DoSDTr:  NPSUse=  4
 JobTyp=0 Pass  1:  I=   1 to   4.
 (rs|ai) integrals will be sorted in core.
 Complete sort for first half transformation.
 First half transformation complete.
 Complete sort for second half transformation.
 Second half transformation complete.
 Spin components of T(2) and E(2):
     alpha-alpha T2 =       0.8149948214D-02 E2=     -0.2842472976D-01
     alpha-beta  T2 =       0.4651957505D-01 E2=     -0.1671156039D+00
     beta-beta   T2 =       0.8149948214D-02 E2=     -0.2842472976D-01
 ANorm=    0.1030931361D+01
 E2 =    -0.2239650635D+00 EUMP2 =    -0.76257689155094D+02
 Leave Link  804 at Wed Feb  8 14:51:10 2023, MaxMem=   754974720 cpu:               0.3 elap:               0.1
 (Enter /opt/cluster/programs/g16-c.01/g16/l913.exe)
 CIDS:  MDV=   754974720.
 Frozen-core window:  NFC=   1 NFV=   0.
 IFCWin=0 IBDFC=1 NFBD=     0     0 NFCmp=     0     0 NFFFC=     0     0
 Using DD3R+UMP44R for 1st iteration.
 Using DD4RQ for 2nd and later iterations.
 Keep R2 and R3 ints in memory in symmetry-blocked form, NReq=1214250.
 FoFCou: FMM=F IPFlag=           0 FMFlag=           0 FMFlg1=           0
         NFxFlg=           0 DoJE=F BraDBF=F KetDBF=F FulRan=T
         wScrn=  0.000000 ICntrl=       600 IOpCl=  0 I1Cent=           0 NGrid=           0
         NMat0=    1 NMatS0=    861 NMatT0=    0 NMatD0=    1 NMtDS0=    0 NMtDT0=    0
 Petite list used in FoFCou.
 CIDS: In Core Option IDoMem=           1.
 CCSD(T)
 =======
 Iterations=  50 Convergence= 0.100D-06
 Produce multiple copies of IABC intergrals
 Iteration Nr.   1
 **********************
 DD1Dir will call FoFMem   1 times, MxPair=        20
 NAB=    10 NAA=     0 NBB=     0.
 MP4(R+Q)=  0.26282035D-02
 Maximum subspace dimension=  5
 A-vector RMS=  5.7713845D-03 Max=  1.8540996D-02 conv= 1.00D-05.
 RLE energy=       -0.2251725540
 E3=       -0.39230324D-02        EUMP3=      -0.76261612187D+02
 E4(DQ)=   -0.18310452D-02        UMP4(DQ)=   -0.76263443233D+02
 E4(SDQ)=  -0.37941461D-02        UMP4(SDQ)=  -0.76265406334D+02
 VARIATIONAL ENERGIES WITH THE FIRST-ORDER WAVEFUNCTION:
 DE(Corr)= -0.22516612     E(Corr)=     -76.258890210    
 NORM(A)=   0.10318228D+01
 Iteration Nr.   2
 **********************
 DD1Dir will call FoFMem   1 times, MxPair=        20
 NAB=    10 NAA=     0 NBB=     0.
 A-vector RMS=  7.1212486D-04 Max=  3.3125118D-03 conv= 1.00D-05.
 RLE energy=       -0.2309741050
 DE(Corr)= -0.23028389     E(CORR)=     -76.264007982     Delta=-5.12D-03
 NORM(A)=   0.10344078D+01
 Iteration Nr.   3
 **********************
 DD1Dir will call FoFMem   1 times, MxPair=        20
 NAB=    10 NAA=     0 NBB=     0.
 A-vector RMS=  8.2729861D-04 Max=  3.1877011D-03 conv= 1.00D-05.
 RLE energy=       -0.2314157652
 DE(Corr)= -0.23091684     E(CORR)=     -76.264640927     Delta=-6.33D-04
 NORM(A)=   0.10350477D+01
 Iteration Nr.   4
 **********************
 DD1Dir will call FoFMem   1 times, MxPair=        20
 NAB=    10 NAA=     0 NBB=     0.
 A-vector RMS=  1.1142858D-04 Max=  4.0942124D-04 conv= 1.00D-05.
 RLE energy=       -0.2314628182
 DE(Corr)= -0.23142544     E(CORR)=     -76.265149528     Delta=-5.09D-04
 NORM(A)=   0.10351885D+01
 Iteration Nr.   5
 **********************
 DD1Dir will call FoFMem   1 times, MxPair=        20
 NAB=    10 NAA=     0 NBB=     0.
 A-vector RMS=  4.5395522D-05 Max=  1.7367708D-04 conv= 1.00D-05.
 RLE energy=       -0.2314713017
 DE(Corr)= -0.23146619     E(CORR)=     -76.265190281     Delta=-4.08D-05
 NORM(A)=   0.10352120D+01
 Iteration Nr.   6
 **********************
 DD1Dir will call FoFMem   1 times, MxPair=        20
 NAB=    10 NAA=     0 NBB=     0.
 A-vector RMS=  1.2498601D-05 Max=  4.3360841D-05 conv= 1.00D-05.
 RLE energy=       -0.2314677713
 DE(Corr)= -0.23146930     E(CORR)=     -76.265193391     Delta=-3.11D-06
 NORM(A)=   0.10352141D+01
 Iteration Nr.   7
 **********************
 DD1Dir will call FoFMem   1 times, MxPair=        20
 NAB=    10 NAA=     0 NBB=     0.
 A-vector RMS=  5.3227176D-06 Max=  2.0688457D-05 conv= 1.00D-05.
 RLE energy=       -0.2314684658
 DE(Corr)= -0.23146936     E(CORR)=     -76.265193455     Delta=-6.42D-08
 NORM(A)=   0.10352148D+01
 Iteration Nr.   8
 **********************
 DD1Dir will call FoFMem   1 times, MxPair=        20
 NAB=    10 NAA=     0 NBB=     0.
 A-vector RMS=  1.7816213D-06 Max=  5.8670840D-06 conv= 1.00D-05.
 RLE energy=       -0.2314687812
 DE(Corr)= -0.23146891     E(CORR)=     -76.265193004     Delta= 4.51D-07
 NORM(A)=   0.10352153D+01
 Iteration Nr.   9
 **********************
 DD1Dir will call FoFMem   1 times, MxPair=        20
 NAB=    10 NAA=     0 NBB=     0.
 A-vector RMS=  5.4921698D-07 Max=  2.1871314D-06 conv= 1.00D-05.
 RLE energy=       -0.2314690984
 DE(Corr)= -0.23146910     E(CORR)=     -76.265193192     Delta=-1.88D-07
 NORM(A)=   0.10352155D+01
 Iteration Nr.  10
 **********************
 DD1Dir will call FoFMem   1 times, MxPair=        20
 NAB=    10 NAA=     0 NBB=     0.
 A-vector RMS=  2.6002505D-07 Max=  9.4971106D-07 conv= 1.00D-05.
 RLE energy=       -0.2314691416
 DE(Corr)= -0.23146911     E(CORR)=     -76.265193205     Delta=-1.21D-08
 NORM(A)=   0.10352156D+01
 CI/CC converged in   10 iterations to DelEn=-1.21D-08 Conv= 1.00D-07 ErrA1= 2.60D-07 Conv= 1.00D-05
 Wavefunction amplitudes converged. E(Corr)=     -76.265193205    
 Largest amplitude= 3.53D-02
 IPart=  3 IA=    3   10.95% done.
 IPart=  4 IA=    5   21.27% done.
 IPart=  2 IA=    7   30.95% done.
 IPart=  3 IA=    9   40.00% done.
 IPart=  1 IA=   12   52.38% done.
 IPart=  1 IA=   15   63.33% done.
 IPart=  1 IA=   18   72.86% done.
 IPart=  2 IA=   21   80.95% done.
 IPart=  1 IA=   26   91.27% done.
 Time for triples=        0.83 seconds.
 T4(CCSD)= -0.60571163D-02
 T5(CCSD)=  0.44844347D-03
 CCSD(T)= -0.76270801877D+02
 Discarding MO integrals.
 Leave Link  913 at Wed Feb  8 14:51:10 2023, MaxMem=   754974720 cpu:               1.6 elap:               0.4
 (Enter /opt/cluster/programs/g16-c.01/g16/l601.exe)
 Copying SCF densities to generalized density rwf, IOpCl= 0 IROHF=0.

 **********************************************************************

            Population analysis using the SCF Density.

 **********************************************************************

 Orbital symmetries:
       Occupied  (A1) (A1) (B2) (A1) (B1)
       Virtual   (A1) (B2) (A1) (B1) (A1) (B2) (B2) (A1) (A2) (A1)
                 (B1) (B2) (A1) (B2) (B2) (A1) (B1) (A1) (A2) (A1)
                 (B2) (B1) (A1) (B2) (A2) (B1) (A1) (B2) (A1) (B2)
                 (A1) (B1) (A1) (A2) (A1) (B2)
 The electronic state is 1-A1.
 Alpha  occ. eigenvalues --  -20.58567  -1.33155  -0.69176  -0.57580  -0.50549
 Alpha virt. eigenvalues --    0.03445   0.05763   0.17501   0.19916   0.21810
 Alpha virt. eigenvalues --    0.23298   0.27591   0.32509   0.38194   0.39646
 Alpha virt. eigenvalues --    0.42606   0.53153   0.63406   0.65264   0.79187
 Alpha virt. eigenvalues --    0.91533   1.10621   1.11778   1.14419   1.28826
 Alpha virt. eigenvalues --    1.45139   1.46706   1.57013   1.96442   1.98283
 Alpha virt. eigenvalues --    2.07700   2.34003   2.38087   2.51401   2.69859
 Alpha virt. eigenvalues --    2.95850   3.67028   3.68176   3.69216   3.96303
 Alpha virt. eigenvalues --    4.20096
          Condensed to atoms (all electrons):
               1          2          3
     1  O    7.775229   0.316581   0.316581
     2  H    0.316581   0.499805  -0.020582
     3  H    0.316581  -0.020582   0.499805
 Mulliken charges:
               1
     1  O   -0.408391
     2  H    0.204196
     3  H    0.204196
 Sum of Mulliken charges =   0.00000
 Mulliken charges with hydrogens summed into heavy atoms:
               1
     1  O    0.000000
 Electronic spatial extent (au):  <R**2>=             20.2216
 Charge=              0.0000 electrons
 Dipole moment (field-independent basis, Debye):
    X=             -0.0000    Y=              0.0000    Z=             -2.0393  Tot=              2.0393
 Quadrupole moment (field-independent basis, Debye-Ang):
   XX=             -7.7101   YY=             -4.1560   ZZ=             -6.2865
   XY=              0.0000   XZ=              0.0000   YZ=             -0.0000
 Traceless Quadrupole moment (field-independent basis, Debye-Ang):
   XX=             -1.6592   YY=              1.8949   ZZ=             -0.2357
   XY=              0.0000   XZ=              0.0000   YZ=             -0.0000
 Octapole moment (field-independent basis, Debye-Ang**2):
  XXX=              0.0000  YYY=              0.0000  ZZZ=             -1.1524  XYY=             -0.0000
  XXY=             -0.0000  XXZ=             -0.2582  XZZ=              0.0000  YZZ=              0.0000
  YYZ=             -1.5563  XYZ=             -0.0000
 Hexadecapole moment (field-independent basis, Debye-Ang**3):
 XXXX=             -6.9851 YYYY=             -6.3650 ZZZZ=             -7.7258 XXXY=             -0.0000
 XXXZ=             -0.0000 YYYX=             -0.0000 YYYZ=             -0.0000 ZZZX=             -0.0000
 ZZZY=             -0.0000 XXYY=             -2.6090 XXZZ=             -2.5143 YYZZ=             -1.9481
 XXYZ=              0.0000 YYXZ=              0.0000 ZZXY=              0.0000
 N-N= 8.723071052329D+00 E-N=-1.978726359410D+02  KE= 7.573960170803D+01
 Symmetry A1   KE= 6.784714722176D+01
 Symmetry A2   KE= 2.698944742555D-34
 Symmetry B1   KE= 4.452217536056D+00
 Symmetry B2   KE= 3.440236950223D+00
 Leave Link  601 at Wed Feb  8 14:51:10 2023, MaxMem=   754974720 cpu:               0.3 elap:               0.1
 (Enter /opt/cluster/programs/g16-c.01/g16/l9999.exe)
 Unable to Open any file for archive entry.
 1\1\GINC-NODE69\SP\RCCSD(T)-FC\Aug-CC-pVDZ\H2O1\BOITTIER\08-Feb-2023\0
 \\#P CCSD(T)/aug-cc-pVDZ scf(maxcycle=200)\\Gaussian input\\0,1\O,0,0.
 ,0.11751,0.\H,0,0.7973622306,-0.5007896629,0.\H,0,-0.7977100455,-0.500
 3408585,0.\\Version=ES64L-G16RevC.01\State=1-A1\HF=-76.0337241\MP2=-76
 .2576892\MP3=-76.2616122\MP4D=-76.2660714\MP4DQ=-76.2634432\MP4SDQ=-76
 .2654063\CCSD=-76.2651932\CCSD(T)=-76.2708019\RMSD=8.292e-09\PG=C02V [
 C2(O1),SGV(H2)]\\@
 The archive entry for this job was punched.


 MORNING PEOPLE ARE USUALLY ADMIRED AS EARLY BIRDS.
 RECALL BEN FRANKLIN'S APHORISM THAT THE EARLY BIRD GETS THE WORM.
 I IDENTIFY WITH THE WORM. --  CRAIG JAGGER, MINNEAPOLIS, KS.
 Job cpu time:       0 days  0 hours  0 minutes  4.9 seconds.
 Elapsed time:       0 days  0 hours  0 minutes  1.4 seconds.
 File lengths (MBytes):  RWF=     20 Int=      0 D2E=      0 Chk=      1 Scr=      1
 Normal termination of Gaussian 16 at Wed Feb  8 14:51:14 2023.
