 Entering Gaussian System, Link 0=/opt/cluster/programs/g16-c.01/g16/g16
 Input=/scratch/boittier/jobs/tmp.7312070/gaussian_62_water_hf_adz.com
 Output=/scratch/boittier/jobs/tmp.7312070/gaussian_62_water_hf_adz.out
 Initial command:
 /opt/cluster/programs/g16-c.01/g16/l1.exe "/scratch/boittier/jobs/tmp.7312070/Gau-162038.inp" -scrdir="/scratch/boittier/jobs/tmp.7312070/"
 Entering Link 1 = /opt/cluster/programs/g16-c.01/g16/l1.exe PID=    162039.
  
 Copyright (c) 1988-2019, Gaussian, Inc.  All Rights Reserved.
  
 This is part of the Gaussian(R) 16 program.  It is based on
 the Gaussian(R) 09 system (copyright 2009, Gaussian, Inc.),
 the Gaussian(R) 03 system (copyright 2003, Gaussian, Inc.),
 the Gaussian(R) 98 system (copyright 1998, Gaussian, Inc.),
 the Gaussian(R) 94 system (copyright 1995, Gaussian, Inc.),
 the Gaussian 92(TM) system (copyright 1992, Gaussian, Inc.),
 the Gaussian 90(TM) system (copyright 1990, Gaussian, Inc.),
 the Gaussian 88(TM) system (copyright 1988, Gaussian, Inc.),
 the Gaussian 86(TM) system (copyright 1986, Carnegie Mellon
 University), and the Gaussian 82(TM) system (copyright 1983,
 Carnegie Mellon University). Gaussian is a federally registered
 trademark of Gaussian, Inc.
  
 This software contains proprietary and confidential information,
 including trade secrets, belonging to Gaussian, Inc.
  
 This software is provided under written license and may be
 used, copied, transmitted, or stored only in accord with that
 written license.
  
 The following legend is applicable only to US Government
 contracts under FAR:
  
                    RESTRICTED RIGHTS LEGEND
  
 Use, reproduction and disclosure by the US Government is
 subject to restrictions as set forth in subparagraphs (a)
 and (c) of the Commercial Computer Software - Restricted
 Rights clause in FAR 52.227-19.
  
 Gaussian, Inc.
 340 Quinnipiac St., Bldg. 40, Wallingford CT 06492
  
  
 ---------------------------------------------------------------
 Warning -- This program may not be used in any manner that
 competes with the business of Gaussian, Inc. or will provide
 assistance to any competitor of Gaussian, Inc.  The licensee
 of this program is prohibited from giving any competitor of
 Gaussian, Inc. access to this program.  By using this program,
 the user acknowledges that Gaussian, Inc. is engaged in the
 business of creating and licensing software in the field of
 computational chemistry and represents and warrants to the
 licensee that it is not a competitor of Gaussian, Inc. and that
 it will not use this program in any manner prohibited above.
 ---------------------------------------------------------------
  

 Cite this work as:
 Gaussian 16, Revision C.01,
 M. J. Frisch, G. W. Trucks, H. B. Schlegel, G. E. Scuseria, 
 M. A. Robb, J. R. Cheeseman, G. Scalmani, V. Barone, 
 G. A. Petersson, H. Nakatsuji, X. Li, M. Caricato, A. V. Marenich, 
 J. Bloino, B. G. Janesko, R. Gomperts, B. Mennucci, H. P. Hratchian, 
 J. V. Ortiz, A. F. Izmaylov, J. L. Sonnenberg, D. Williams-Young, 
 F. Ding, F. Lipparini, F. Egidi, J. Goings, B. Peng, A. Petrone, 
 T. Henderson, D. Ranasinghe, V. G. Zakrzewski, J. Gao, N. Rega, 
 G. Zheng, W. Liang, M. Hada, M. Ehara, K. Toyota, R. Fukuda, 
 J. Hasegawa, M. Ishida, T. Nakajima, Y. Honda, O. Kitao, H. Nakai, 
 T. Vreven, K. Throssell, J. A. Montgomery, Jr., J. E. Peralta, 
 F. Ogliaro, M. J. Bearpark, J. J. Heyd, E. N. Brothers, K. N. Kudin, 
 V. N. Staroverov, T. A. Keith, R. Kobayashi, J. Normand, 
 K. Raghavachari, A. P. Rendell, J. C. Burant, S. S. Iyengar, 
 J. Tomasi, M. Cossi, J. M. Millam, M. Klene, C. Adamo, R. Cammi, 
 J. W. Ochterski, R. L. Martin, K. Morokuma, O. Farkas, 
 J. B. Foresman, and D. J. Fox, Gaussian, Inc., Wallingford CT, 2019.
 
 ******************************************
 Gaussian 16:  ES64L-G16RevC.01  3-Jul-2019
                20-Feb-2023 
 ******************************************
 %nproc=4
 Will use up to    4 processors via shared memory.
 %mem=5760MB
 %chk=gaussian_62_water_hf_adz.chk
 -----------------------------------
 #P HF/aug-cc-pVDZ scf(maxcycle=200)
 -----------------------------------
 1/38=1,172=1/1;
 2/12=2,17=6,18=5,40=1/2;
 3/5=16,7=10,11=9,25=1,30=1/1,2,3;
 4//1;
 5/5=2,7=200,38=5/2;
 6/7=2,8=2,9=2,10=2,28=1/1;
 99/5=1,9=1/99;
 Leave Link    1 at Mon Feb 20 10:27:34 2023, MaxMem=   754974720 cpu:               0.1 elap:               0.0
 (Enter /opt/cluster/programs/g16-c.01/g16/l101.exe)
 --------------
 Gaussian input
 --------------
 Symbolic Z-matrix:
 Charge =  0 Multiplicity = 1
 O                     0.        0.11751   0. 
 H                     0.75785  -0.47015   0. 
 H                    -0.53739  -0.61563   0. 
 
 ITRead=  0  0  0
 MicOpt= -1 -1 -1
 NAtoms=      3 NQM=        3 NQMF=       0 NMMI=      0 NMMIF=      0
                NMic=       0 NMicF=      0.
                    Isotopes and Nuclear Properties:
 (Nuclear quadrupole moments (NQMom) in fm**2, nuclear magnetic moments (NMagM)
  in nuclear magnetons)

  Atom         1           2           3
 IAtWgt=          16           1           1
 AtmWgt=  15.9949146   1.0078250   1.0078250
 NucSpn=           0           1           1
 AtZEff=  -0.0000000  -0.0000000  -0.0000000
 NQMom=    0.0000000   0.0000000   0.0000000
 NMagM=    0.0000000   2.7928460   2.7928460
 AtZNuc=   8.0000000   1.0000000   1.0000000
 Leave Link  101 at Mon Feb 20 10:27:34 2023, MaxMem=   754974720 cpu:               0.8 elap:               0.2
 (Enter /opt/cluster/programs/g16-c.01/g16/l202.exe)
                          Input orientation:                          
 ---------------------------------------------------------------------
 Center     Atomic      Atomic             Coordinates (Angstroms)
 Number     Number       Type             X           Y           Z
 ---------------------------------------------------------------------
      1          8           0        0.000000    0.117510    0.000000
      2          1           0        0.757850   -0.470150    0.000000
      3          1           0       -0.537387   -0.615631    0.000000
 ---------------------------------------------------------------------
                    Distance matrix (angstroms):
                    1          2          3
     1  O    0.000000
     2  H    0.959000   0.000000
     3  H    0.909000   1.303381   0.000000
 Stoichiometry    H2O
 Framework group  CS[SG(H2O)]
 Deg. of freedom     3
 Full point group                 CS      NOp   2
 Largest Abelian subgroup         CS      NOp   2
 Largest concise Abelian subgroup C1      NOp   1
                         Standard orientation:                         
 ---------------------------------------------------------------------
 Center     Atomic      Atomic             Coordinates (Angstroms)
 Number     Number       Type             X           Y           Z
 ---------------------------------------------------------------------
      1          8           0        0.000000    0.133907   -0.000000
      2          1           0        0.650757   -0.570505   -0.000000
      3          1           0       -0.650757   -0.500755    0.000000
 ---------------------------------------------------------------------
 Rotational constants (GHZ):         650.0637945         573.5964190         304.7204286
 Leave Link  202 at Mon Feb 20 10:27:34 2023, MaxMem=   754974720 cpu:               0.0 elap:               0.0
 (Enter /opt/cluster/programs/g16-c.01/g16/l301.exe)
 Standard basis: Aug-CC-pVDZ (5D, 7F)
 Ernie: Thresh=  0.10000D-02 Tol=  0.10000D-05 Strict=F.
 Ernie:  2 primitive shells out of 39 were deleted.
 There are    32 symmetry adapted cartesian basis functions of A'  symmetry.
 There are    11 symmetry adapted cartesian basis functions of A"  symmetry.
 There are    30 symmetry adapted basis functions of A'  symmetry.
 There are    11 symmetry adapted basis functions of A"  symmetry.
    41 basis functions,    65 primitive gaussians,    43 cartesian basis functions
     5 alpha electrons        5 beta electrons
       nuclear repulsion energy         9.4776370194 Hartrees.
 IExCor=    0 DFT=F Ex=HF Corr=None ExCW=0 ScaHFX=  1.000000
 ScaDFX=  1.000000  1.000000  1.000000  1.000000 ScalE2=  1.000000  1.000000
 IRadAn=      5 IRanWt=     -1 IRanGd=            0 ICorTp=0 IEmpDi=  4
 NAtoms=    3 NActive=    3 NUniq=    3 SFac= 1.00D+00 NAtFMM=   60 NAOKFM=F Big=F
 Integral buffers will be    131072 words long.
 Raffenetti 1 integral format.
 Two-electron integral symmetry is turned on.
 Leave Link  301 at Mon Feb 20 10:27:34 2023, MaxMem=   754974720 cpu:               0.1 elap:               0.0
 (Enter /opt/cluster/programs/g16-c.01/g16/l302.exe)
 NPDir=0 NMtPBC=     1 NCelOv=     1 NCel=       1 NClECP=     1 NCelD=      1
         NCelK=      1 NCelE2=     1 NClLst=     1 CellRange=     0.0.
 One-electron integrals computed using PRISM.
 One-electron integral symmetry used in STVInt
 NBasis=    41 RedAO= T EigKep=  1.64D-03  NBF=    30    11
 NBsUse=    41 1.00D-06 EigRej= -1.00D+00 NBFU=    30    11
 Leave Link  302 at Mon Feb 20 10:27:34 2023, MaxMem=   754974720 cpu:               0.5 elap:               0.2
 (Enter /opt/cluster/programs/g16-c.01/g16/l303.exe)
 DipDrv:  MaxL=1.
 Leave Link  303 at Mon Feb 20 10:27:34 2023, MaxMem=   754974720 cpu:               0.5 elap:               0.3
 (Enter /opt/cluster/programs/g16-c.01/g16/l401.exe)
 ExpMin= 2.97D-02 ExpMax= 1.17D+04 ExpMxC= 4.01D+02 IAcc=3 IRadAn=         5 AccDes= 0.00D+00
 Harris functional with IExCor=  205 and IRadAn=       5 diagonalized for initial guess.
 HarFok:  IExCor=  205 AccDes= 0.00D+00 IRadAn=         5 IDoV= 1 UseB2=F ITyADJ=14
 ICtDFT=  3500011 ScaDFX=  1.000000  1.000000  1.000000  1.000000
 FoFCou: FMM=F IPFlag=           0 FMFlag=      100000 FMFlg1=           0
         NFxFlg=           0 DoJE=T BraDBF=F KetDBF=T FulRan=T
         wScrn=  0.000000 ICntrl=       500 IOpCl=  0 I1Cent=   200000004 NGrid=           0
         NMat0=    1 NMatS0=      1 NMatT0=    0 NMatD0=    1 NMtDS0=    0 NMtDT0=    0
 Petite list used in FoFCou.
 Harris En= -76.1152060230024    
 JPrj=0 DoOrth=F DoCkMO=F.
 Initial guess orbital symmetries:
       Occupied  (A') (A') (A') (A') (A")
       Virtual   (A') (A') (A') (A") (A') (A') (A') (A') (A') (A")
                 (A") (A') (A') (A') (A') (A') (A") (A') (A") (A')
                 (A") (A') (A') (A") (A') (A') (A") (A') (A') (A')
                 (A') (A") (A') (A") (A') (A')
 The electronic state of the initial guess is 1-A'.
 Leave Link  401 at Mon Feb 20 10:27:34 2023, MaxMem=   754974720 cpu:               0.6 elap:               0.2
 (Enter /opt/cluster/programs/g16-c.01/g16/l502.exe)
 Keep R1 ints in memory in symmetry-blocked form, NReq=1210696.
 FoFCou: FMM=F IPFlag=           0 FMFlag=           0 FMFlg1=           0
         NFxFlg=           0 DoJE=F BraDBF=F KetDBF=F FulRan=T
         wScrn=  0.000000 ICntrl=       600 IOpCl=  0 I1Cent=           0 NGrid=           0
         NMat0=    1 NMatS0=    861 NMatT0=    0 NMatD0=    1 NMtDS0=    0 NMtDT0=    0
 Petite list used in FoFCou.
 Closed shell SCF:
 Using DIIS extrapolation, IDIIS=  1040.
 NGot=   754974720 LenX=   754771907 LenY=   754769617
 Requested convergence on RMS density matrix=1.00D-08 within 200 cycles.
 Requested convergence on MAX density matrix=1.00D-06.
 Requested convergence on             energy=1.00D-06.
 No special actions if energy rises.

 Cycle   1  Pass 1  IDiag  1:
 E= -75.9524008686537    
 DIIS: error= 5.13D-02 at cycle   1 NSaved=   1.
 NSaved= 1 IEnMin= 1 EnMin= -75.9524008686537     IErMin= 1 ErrMin= 5.13D-02
 ErrMax= 5.13D-02  0.00D+00 EMaxC= 1.00D-01 BMatC= 1.20D-01 BMatP= 1.20D-01
 IDIUse=3 WtCom= 4.87D-01 WtEn= 5.13D-01
 Coeff-Com:  0.100D+01
 Coeff-En:   0.100D+01
 Coeff:      0.100D+01
 Gap=     0.460 Goal=   None    Shift=    0.000
 GapD=    0.460 DampG=2.000 DampE=0.500 DampFc=1.0000 IDamp=-1.
 RMSDP=6.44D-03 MaxDP=1.19D-01              OVMax= 1.21D-01

 Cycle   2  Pass 1  IDiag  1:
 E= -75.9987061168073     Delta-E=       -0.046305248154 Rises=F Damp=F
 DIIS: error= 3.98D-02 at cycle   2 NSaved=   2.
 NSaved= 2 IEnMin= 2 EnMin= -75.9987061168073     IErMin= 2 ErrMin= 3.98D-02
 ErrMax= 3.98D-02  0.00D+00 EMaxC= 1.00D-01 BMatC= 4.59D-02 BMatP= 1.20D-01
 IDIUse=3 WtCom= 6.02D-01 WtEn= 3.98D-01
 Coeff-Com:  0.371D+00 0.629D+00
 Coeff-En:   0.202D+00 0.798D+00
 Coeff:      0.304D+00 0.696D+00
 Gap=     0.567 Goal=   None    Shift=    0.000
 RMSDP=2.99D-03 MaxDP=5.45D-02 DE=-4.63D-02 OVMax= 5.86D-02

 Cycle   3  Pass 1  IDiag  1:
 E= -76.0299703553170     Delta-E=       -0.031264238510 Rises=F Damp=F
 DIIS: error= 4.72D-03 at cycle   3 NSaved=   3.
 NSaved= 3 IEnMin= 3 EnMin= -76.0299703553170     IErMin= 3 ErrMin= 4.72D-03
 ErrMax= 4.72D-03  0.00D+00 EMaxC= 1.00D-01 BMatC= 1.18D-03 BMatP= 4.59D-02
 IDIUse=3 WtCom= 9.53D-01 WtEn= 4.72D-02
 Coeff-Com: -0.379D-01 0.933D-01 0.945D+00
 Coeff-En:   0.000D+00 0.000D+00 0.100D+01
 Coeff:     -0.361D-01 0.889D-01 0.947D+00
 Gap=     0.549 Goal=   None    Shift=    0.000
 RMSDP=4.73D-04 MaxDP=8.34D-03 DE=-3.13D-02 OVMax= 9.26D-03

 Cycle   4  Pass 1  IDiag  1:
 E= -76.0308498346253     Delta-E=       -0.000879479308 Rises=F Damp=F
 DIIS: error= 6.19D-04 at cycle   4 NSaved=   4.
 NSaved= 4 IEnMin= 4 EnMin= -76.0308498346253     IErMin= 4 ErrMin= 6.19D-04
 ErrMax= 6.19D-04  0.00D+00 EMaxC= 1.00D-01 BMatC= 6.41D-06 BMatP= 1.18D-03
 IDIUse=3 WtCom= 9.94D-01 WtEn= 6.19D-03
 Coeff-Com:  0.974D-02-0.438D-01-0.340D+00 0.137D+01
 Coeff-En:   0.000D+00 0.000D+00 0.000D+00 0.100D+01
 Coeff:      0.968D-02-0.435D-01-0.338D+00 0.137D+01
 Gap=     0.549 Goal=   None    Shift=    0.000
 RMSDP=1.02D-04 MaxDP=1.06D-03 DE=-8.79D-04 OVMax= 1.91D-03

 Cycle   5  Pass 1  IDiag  1:
 E= -76.0308650744552     Delta-E=       -0.000015239830 Rises=F Damp=F
 DIIS: error= 1.57D-04 at cycle   5 NSaved=   5.
 NSaved= 5 IEnMin= 5 EnMin= -76.0308650744552     IErMin= 5 ErrMin= 1.57D-04
 ErrMax= 1.57D-04  0.00D+00 EMaxC= 1.00D-01 BMatC= 2.34D-07 BMatP= 6.41D-06
 IDIUse=3 WtCom= 9.98D-01 WtEn= 1.57D-03
 Coeff-Com: -0.170D-02 0.971D-02 0.748D-01-0.443D+00 0.136D+01
 Coeff-En:   0.000D+00 0.000D+00 0.000D+00 0.000D+00 0.100D+01
 Coeff:     -0.170D-02 0.970D-02 0.747D-01-0.442D+00 0.136D+01
 Gap=     0.550 Goal=   None    Shift=    0.000
 RMSDP=2.22D-05 MaxDP=3.63D-04 DE=-1.52D-05 OVMax= 4.90D-04

 Cycle   6  Pass 1  IDiag  1:
 E= -76.0308657492055     Delta-E=       -0.000000674750 Rises=F Damp=F
 DIIS: error= 1.93D-05 at cycle   6 NSaved=   6.
 NSaved= 6 IEnMin= 6 EnMin= -76.0308657492055     IErMin= 6 ErrMin= 1.93D-05
 ErrMax= 1.93D-05  0.00D+00 EMaxC= 1.00D-01 BMatC= 6.30D-09 BMatP= 2.34D-07
 IDIUse=1 WtCom= 1.00D+00 WtEn= 0.00D+00
 Coeff-Com: -0.357D-04-0.164D-03-0.202D-02 0.346D-01-0.261D+00 0.123D+01
 Coeff:     -0.357D-04-0.164D-03-0.202D-02 0.346D-01-0.261D+00 0.123D+01
 Gap=     0.550 Goal=   None    Shift=    0.000
 RMSDP=2.72D-06 MaxDP=5.56D-05 DE=-6.75D-07 OVMax= 7.47D-05

 Cycle   7  Pass 1  IDiag  1:
 E= -76.0308657654573     Delta-E=       -0.000000016252 Rises=F Damp=F
 DIIS: error= 3.45D-06 at cycle   7 NSaved=   7.
 NSaved= 7 IEnMin= 7 EnMin= -76.0308657654573     IErMin= 7 ErrMin= 3.45D-06
 ErrMax= 3.45D-06  0.00D+00 EMaxC= 1.00D-01 BMatC= 2.72D-10 BMatP= 6.30D-09
 IDIUse=1 WtCom= 1.00D+00 WtEn= 0.00D+00
 Coeff-Com:  0.103D-03-0.539D-03-0.414D-02 0.212D-01-0.384D-01-0.165D+00
 Coeff-Com:  0.119D+01
 Coeff:      0.103D-03-0.539D-03-0.414D-02 0.212D-01-0.384D-01-0.165D+00
 Coeff:      0.119D+01
 Gap=     0.550 Goal=   None    Shift=    0.000
 RMSDP=5.80D-07 MaxDP=8.69D-06 DE=-1.63D-08 OVMax= 1.40D-05

 Cycle   8  Pass 1  IDiag  1:
 E= -76.0308657660892     Delta-E=       -0.000000000632 Rises=F Damp=F
 DIIS: error= 5.95D-07 at cycle   8 NSaved=   8.
 NSaved= 8 IEnMin= 8 EnMin= -76.0308657660892     IErMin= 8 ErrMin= 5.95D-07
 ErrMax= 5.95D-07  0.00D+00 EMaxC= 1.00D-01 BMatC= 7.27D-12 BMatP= 2.72D-10
 IDIUse=1 WtCom= 1.00D+00 WtEn= 0.00D+00
 Coeff-Com: -0.194D-04 0.114D-03 0.912D-03-0.560D-02 0.165D-01-0.169D-02
 Coeff-Com: -0.282D+00 0.127D+01
 Coeff:     -0.194D-04 0.114D-03 0.912D-03-0.560D-02 0.165D-01-0.169D-02
 Coeff:     -0.282D+00 0.127D+01
 Gap=     0.550 Goal=   None    Shift=    0.000
 RMSDP=1.45D-07 MaxDP=1.90D-06 DE=-6.32D-10 OVMax= 2.57D-06

 Cycle   9  Pass 1  IDiag  1:
 E= -76.0308657661083     Delta-E=       -0.000000000019 Rises=F Damp=F
 DIIS: error= 8.63D-08 at cycle   9 NSaved=   9.
 NSaved= 9 IEnMin= 9 EnMin= -76.0308657661083     IErMin= 9 ErrMin= 8.63D-08
 ErrMax= 8.63D-08  0.00D+00 EMaxC= 1.00D-01 BMatC= 1.91D-13 BMatP= 7.27D-12
 IDIUse=1 WtCom= 1.00D+00 WtEn= 0.00D+00
 Coeff-Com:  0.133D-05-0.905D-05-0.864D-04 0.684D-03-0.264D-02 0.441D-02
 Coeff-Com:  0.355D-01-0.271D+00 0.123D+01
 Coeff:      0.133D-05-0.905D-05-0.864D-04 0.684D-03-0.264D-02 0.441D-02
 Coeff:      0.355D-01-0.271D+00 0.123D+01
 Gap=     0.550 Goal=   None    Shift=    0.000
 RMSDP=2.05D-08 MaxDP=2.20D-07 DE=-1.91D-11 OVMax= 3.12D-07

 Cycle  10  Pass 1  IDiag  1:
 E= -76.0308657661088     Delta-E=       -0.000000000000 Rises=F Damp=F
 DIIS: error= 1.85D-08 at cycle  10 NSaved=  10.
 NSaved=10 IEnMin=10 EnMin= -76.0308657661088     IErMin=10 ErrMin= 1.85D-08
 ErrMax= 1.85D-08  0.00D+00 EMaxC= 1.00D-01 BMatC= 8.62D-15 BMatP= 1.91D-13
 IDIUse=1 WtCom= 1.00D+00 WtEn= 0.00D+00
 Coeff-Com:  0.352D-06-0.170D-05-0.868D-05 0.102D-05 0.208D-03-0.131D-02
 Coeff-Com: -0.176D-04 0.292D-01-0.359D+00 0.133D+01
 Coeff:      0.352D-06-0.170D-05-0.868D-05 0.102D-05 0.208D-03-0.131D-02
 Coeff:     -0.176D-04 0.292D-01-0.359D+00 0.133D+01
 Gap=     0.550 Goal=   None    Shift=    0.000
 RMSDP=5.02D-09 MaxDP=5.31D-08 DE=-4.55D-13 OVMax= 9.55D-08

 SCF Done:  E(RHF) =  -76.0308657661     A.U. after   10 cycles
            NFock= 10  Conv=0.50D-08     -V/T= 1.9997
 KE= 7.605344685502D+01 PE=-1.994759775587D+02 EE= 3.791402791814D+01
 Leave Link  502 at Mon Feb 20 10:27:35 2023, MaxMem=   754974720 cpu:               0.6 elap:               0.2
 (Enter /opt/cluster/programs/g16-c.01/g16/l601.exe)
 Copying SCF densities to generalized density rwf, IOpCl= 0 IROHF=0.

 **********************************************************************

            Population analysis using the SCF Density.

 **********************************************************************

 Orbital symmetries:
       Occupied  (A') (A') (A') (A') (A")
       Virtual   (A') (A') (A') (A") (A') (A') (A') (A') (A') (A")
                 (A") (A') (A') (A') (A') (A') (A") (A') (A") (A')
                 (A') (A") (A') (A") (A') (A") (A') (A') (A') (A')
                 (A') (A") (A') (A") (A') (A')
 The electronic state is 1-A'.
 Alpha  occ. eigenvalues --  -20.57922  -1.38350  -0.69623  -0.62259  -0.51571
 Alpha virt. eigenvalues --    0.03416   0.05944   0.17104   0.19754   0.22416
 Alpha virt. eigenvalues --    0.23506   0.29121   0.36028   0.37993   0.39609
 Alpha virt. eigenvalues --    0.41621   0.55770   0.64513   0.66042   0.79184
 Alpha virt. eigenvalues --    0.96974   1.10957   1.12462   1.15045   1.28616
 Alpha virt. eigenvalues --    1.44068   1.46945   1.62735   2.00699   2.06490
 Alpha virt. eigenvalues --    2.15066   2.15074   2.56127   2.66235   2.75610
 Alpha virt. eigenvalues --    3.05377   3.68141   3.70072   3.70465   4.02462
 Alpha virt. eigenvalues --    4.37186
          Condensed to atoms (all electrons):
               1          2          3
     1  O    7.573299   0.324848   0.341183
     2  H    0.324848   0.548908  -0.018199
     3  H    0.341183  -0.018199   0.582127
 Mulliken charges:
               1
     1  O   -0.239331
     2  H    0.144443
     3  H    0.094888
 Sum of Mulliken charges =  -0.00000
 Mulliken charges with hydrogens summed into heavy atoms:
               1
     1  O   -0.000000
 Electronic spatial extent (au):  <R**2>=             19.1945
 Charge=             -0.0000 electrons
 Dipole moment (field-independent basis, Debye):
    X=             -0.0315    Y=             -2.2188    Z=             -0.0000  Tot=              2.2190
 Quadrupole moment (field-independent basis, Debye-Ang):
   XX=             -5.0130   YY=             -5.7729   ZZ=             -7.5065
   XY=             -0.0901   XZ=             -0.0000   YZ=             -0.0000
 Traceless Quadrupole moment (field-independent basis, Debye-Ang):
   XX=              1.0845   YY=              0.3246   ZZ=             -1.4090
   XY=             -0.0901   XZ=             -0.0000   YZ=             -0.0000
 Octapole moment (field-independent basis, Debye-Ang**2):
  XXX=             -0.0832  YYY=             -1.5255  ZZZ=             -0.0000  XYY=              0.0738
  XXY=             -1.2042  XXZ=              0.0000  XZZ=             -0.0310  YZZ=             -0.3430
  YYZ=              0.0000  XYZ=              0.0000
 Hexadecapole moment (field-independent basis, Debye-Ang**3):
 XXXX=             -6.2505 YYYY=             -7.1458 ZZZZ=             -6.6356 XXXY=              0.0392
 XXXZ=              0.0000 YYYX=             -0.0086 YYYZ=              0.0000 ZZZX=              0.0000
 ZZZY=              0.0000 XXYY=             -1.8164 XXZZ=             -2.3108 YYZZ=             -2.3809
 XXYZ=             -0.0000 YYXZ=             -0.0000 ZZXY=              0.0316
 N-N= 9.477637019418D+00 E-N=-1.994759776008D+02  KE= 7.605344685502D+01
 Symmetry A'   KE= 7.159698496563D+01
 Symmetry A"   KE= 4.456461889386D+00
 No NMR shielding tensors so no spin-rotation constants.
 Leave Link  601 at Mon Feb 20 10:27:35 2023, MaxMem=   754974720 cpu:               0.4 elap:               0.1
 (Enter /opt/cluster/programs/g16-c.01/g16/l9999.exe)
 Unable to Open any file for archive entry.
 1\1\GINC-NODE106\SP\RHF\Aug-CC-pVDZ\H2O1\BOITTIER\20-Feb-2023\0\\#P HF
 /aug-cc-pVDZ scf(maxcycle=200)\\Gaussian input\\0,1\O,0,0.,0.11751,0.\
 H,0,0.7578497316,-0.4701504329,0.\H,0,-0.537386867,-0.6156314292,0.\\V
 ersion=ES64L-G16RevC.01\State=1-A'\HF=-76.0308658\RMSD=5.021e-09\Dipol
 e=0.1314841,-0.8630633,0.\Quadrupole=0.8127304,0.2348598,-1.0475902,0.
 0283984,0.,0.\PG=CS [SG(H2O1)]\\@
 The archive entry for this job was punched.


 WHEN A MATHEMATICIAN ENGAGED IN INVESTIGATING
 PHYSICAL ACTIONS AND RESULTS HAS ARRIVED AT HIS
 CONCLUSIONS, MAY THEY NOT BE EXPRESSED IN COMMON
 LANGUAGE AS FULLY, CLEARLY, AND DEFINITELY AS IN
 MATHEMATICAL FORMULAE?
           - LETTER FROM M. FARADAY TO J.C. MAXWELL, 1857.
 Job cpu time:       0 days  0 hours  0 minutes  3.8 seconds.
 Elapsed time:       0 days  0 hours  0 minutes  1.2 seconds.
 File lengths (MBytes):  RWF=      6 Int=      0 D2E=      0 Chk=      1 Scr=      1
 Normal termination of Gaussian 16 at Mon Feb 20 10:27:35 2023.
