 Entering Gaussian System, Link 0=/opt/cluster/programs/g16-c.01/g16/g16
 Input=/scratch/boittier/jobs/tmp.7261740/gaussian_71_water_ccsdt_atz.com
 Output=/scratch/boittier/jobs/tmp.7261740/gaussian_71_water_ccsdt_atz.out
 Initial command:
 /opt/cluster/programs/g16-c.01/g16/l1.exe "/scratch/boittier/jobs/tmp.7261740/Gau-136536.inp" -scrdir="/scratch/boittier/jobs/tmp.7261740/"
 Entering Link 1 = /opt/cluster/programs/g16-c.01/g16/l1.exe PID=    136537.
  
 Copyright (c) 1988-2019, Gaussian, Inc.  All Rights Reserved.
  
 This is part of the Gaussian(R) 16 program.  It is based on
 the Gaussian(R) 09 system (copyright 2009, Gaussian, Inc.),
 the Gaussian(R) 03 system (copyright 2003, Gaussian, Inc.),
 the Gaussian(R) 98 system (copyright 1998, Gaussian, Inc.),
 the Gaussian(R) 94 system (copyright 1995, Gaussian, Inc.),
 the Gaussian 92(TM) system (copyright 1992, Gaussian, Inc.),
 the Gaussian 90(TM) system (copyright 1990, Gaussian, Inc.),
 the Gaussian 88(TM) system (copyright 1988, Gaussian, Inc.),
 the Gaussian 86(TM) system (copyright 1986, Carnegie Mellon
 University), and the Gaussian 82(TM) system (copyright 1983,
 Carnegie Mellon University). Gaussian is a federally registered
 trademark of Gaussian, Inc.
  
 This software contains proprietary and confidential information,
 including trade secrets, belonging to Gaussian, Inc.
  
 This software is provided under written license and may be
 used, copied, transmitted, or stored only in accord with that
 written license.
  
 The following legend is applicable only to US Government
 contracts under FAR:
  
                    RESTRICTED RIGHTS LEGEND
  
 Use, reproduction and disclosure by the US Government is
 subject to restrictions as set forth in subparagraphs (a)
 and (c) of the Commercial Computer Software - Restricted
 Rights clause in FAR 52.227-19.
  
 Gaussian, Inc.
 340 Quinnipiac St., Bldg. 40, Wallingford CT 06492
  
  
 ---------------------------------------------------------------
 Warning -- This program may not be used in any manner that
 competes with the business of Gaussian, Inc. or will provide
 assistance to any competitor of Gaussian, Inc.  The licensee
 of this program is prohibited from giving any competitor of
 Gaussian, Inc. access to this program.  By using this program,
 the user acknowledges that Gaussian, Inc. is engaged in the
 business of creating and licensing software in the field of
 computational chemistry and represents and warrants to the
 licensee that it is not a competitor of Gaussian, Inc. and that
 it will not use this program in any manner prohibited above.
 ---------------------------------------------------------------
  

 Cite this work as:
 Gaussian 16, Revision C.01,
 M. J. Frisch, G. W. Trucks, H. B. Schlegel, G. E. Scuseria, 
 M. A. Robb, J. R. Cheeseman, G. Scalmani, V. Barone, 
 G. A. Petersson, H. Nakatsuji, X. Li, M. Caricato, A. V. Marenich, 
 J. Bloino, B. G. Janesko, R. Gomperts, B. Mennucci, H. P. Hratchian, 
 J. V. Ortiz, A. F. Izmaylov, J. L. Sonnenberg, D. Williams-Young, 
 F. Ding, F. Lipparini, F. Egidi, J. Goings, B. Peng, A. Petrone, 
 T. Henderson, D. Ranasinghe, V. G. Zakrzewski, J. Gao, N. Rega, 
 G. Zheng, W. Liang, M. Hada, M. Ehara, K. Toyota, R. Fukuda, 
 J. Hasegawa, M. Ishida, T. Nakajima, Y. Honda, O. Kitao, H. Nakai, 
 T. Vreven, K. Throssell, J. A. Montgomery, Jr., J. E. Peralta, 
 F. Ogliaro, M. J. Bearpark, J. J. Heyd, E. N. Brothers, K. N. Kudin, 
 V. N. Staroverov, T. A. Keith, R. Kobayashi, J. Normand, 
 K. Raghavachari, A. P. Rendell, J. C. Burant, S. S. Iyengar, 
 J. Tomasi, M. Cossi, J. M. Millam, M. Klene, C. Adamo, R. Cammi, 
 J. W. Ochterski, R. L. Martin, K. Morokuma, O. Farkas, 
 J. B. Foresman, and D. J. Fox, Gaussian, Inc., Wallingford CT, 2019.
 
 ******************************************
 Gaussian 16:  ES64L-G16RevC.01  3-Jul-2019
                 8-Feb-2023 
 ******************************************
 %nproc=4
 Will use up to    4 processors via shared memory.
 %mem=5760MB
 %chk=gaussian_71_water_ccsdt_atz.chk
 ----------------------------------------
 #P CCSD(T)/aug-cc-pVTZ scf(maxcycle=200)
 ----------------------------------------
 1/38=1,172=1/1;
 2/12=2,17=6,18=5,40=1/2;
 3/5=16,6=1,7=10,11=9,25=1,30=1/1,2,3;
 4//1;
 5/5=2,7=200,38=5/2;
 8/6=4,9=120000,10=1/1,4;
 9/5=7,14=2/13;
 6/7=2,8=2,9=2,10=2/1;
 99/5=1,9=1/99;
 Leave Link    1 at Wed Feb  8 13:51:30 2023, MaxMem=   754974720 cpu:               0.2 elap:               0.1
 (Enter /opt/cluster/programs/g16-c.01/g16/l101.exe)
 --------------
 Gaussian input
 --------------
 Symbolic Z-matrix:
 Charge =  0 Multiplicity = 1
 O                     0.        0.11751   0. 
 H                     0.75785  -0.47015   0. 
 H                    -0.73764  -0.41369   0. 
 
 ITRead=  0  0  0
 MicOpt= -1 -1 -1
 NAtoms=      3 NQM=        3 NQMF=       0 NMMI=      0 NMMIF=      0
                NMic=       0 NMicF=      0.
                    Isotopes and Nuclear Properties:
 (Nuclear quadrupole moments (NQMom) in fm**2, nuclear magnetic moments (NMagM)
  in nuclear magnetons)

  Atom         1           2           3
 IAtWgt=          16           1           1
 AtmWgt=  15.9949146   1.0078250   1.0078250
 NucSpn=           0           1           1
 AtZEff=  -0.0000000  -0.0000000  -0.0000000
 NQMom=    0.0000000   0.0000000   0.0000000
 NMagM=    0.0000000   2.7928460   2.7928460
 AtZNuc=   8.0000000   1.0000000   1.0000000
 Leave Link  101 at Wed Feb  8 13:51:30 2023, MaxMem=   754974720 cpu:               0.6 elap:               0.2
 (Enter /opt/cluster/programs/g16-c.01/g16/l202.exe)
                          Input orientation:                          
 ---------------------------------------------------------------------
 Center     Atomic      Atomic             Coordinates (Angstroms)
 Number     Number       Type             X           Y           Z
 ---------------------------------------------------------------------
      1          8           0        0.000000    0.117510    0.000000
      2          1           0        0.757850   -0.470150    0.000000
      3          1           0       -0.737638   -0.413687    0.000000
 ---------------------------------------------------------------------
                    Distance matrix (angstroms):
                    1          2          3
     1  O    0.000000
     2  H    0.959000   0.000000
     3  H    0.909000   1.496554   0.000000
 Stoichiometry    H2O
 Framework group  CS[SG(H2O)]
 Deg. of freedom     3
 Full point group                 CS      NOp   2
 Largest Abelian subgroup         CS      NOp   2
 Largest concise Abelian subgroup C1      NOp   1
                         Standard orientation:                         
 ---------------------------------------------------------------------
 Center     Atomic      Atomic             Coordinates (Angstroms)
 Number     Number       Type             X           Y           Z
 ---------------------------------------------------------------------
      1          8           0        0.000000    0.111904   -0.000000
      2          1           0        0.747112   -0.489348    0.000000
      3          1           0       -0.747112   -0.405884   -0.000000
 ---------------------------------------------------------------------
 Rotational constants (GHZ):         907.3843236         446.4318477         299.2173301
 Leave Link  202 at Wed Feb  8 13:51:30 2023, MaxMem=   754974720 cpu:               0.1 elap:               0.0
 (Enter /opt/cluster/programs/g16-c.01/g16/l301.exe)
 Standard basis: Aug-CC-pVTZ (5D, 7F)
 Ernie: Thresh=  0.10000D-02 Tol=  0.10000D-05 Strict=F.
 Ernie:  3 primitive shells out of 52 were deleted.
 There are    73 symmetry adapted cartesian basis functions of A'  symmetry.
 There are    32 symmetry adapted cartesian basis functions of A"  symmetry.
 There are    62 symmetry adapted basis functions of A'  symmetry.
 There are    30 symmetry adapted basis functions of A"  symmetry.
    92 basis functions,   126 primitive gaussians,   105 cartesian basis functions
     5 alpha electrons        5 beta electrons
       nuclear repulsion energy         9.4252308210 Hartrees.
 IExCor=    0 DFT=F Ex=HF Corr=None ExCW=0 ScaHFX=  1.000000
 ScaDFX=  1.000000  1.000000  1.000000  1.000000 ScalE2=  1.000000  1.000000
 IRadAn=      5 IRanWt=     -1 IRanGd=            0 ICorTp=0 IEmpDi=  4
 NAtoms=    3 NActive=    3 NUniq=    3 SFac= 1.00D+00 NAtFMM=   60 NAOKFM=F Big=F
 Integral buffers will be    131072 words long.
 Raffenetti 1 integral format.
 Two-electron integral symmetry is turned on.
 Leave Link  301 at Wed Feb  8 13:51:30 2023, MaxMem=   754974720 cpu:               0.1 elap:               0.0
 (Enter /opt/cluster/programs/g16-c.01/g16/l302.exe)
 NPDir=0 NMtPBC=     1 NCelOv=     1 NCel=       1 NClECP=     1 NCelD=      1
         NCelK=      1 NCelE2=     1 NClLst=     1 CellRange=     0.0.
 One-electron integrals computed using PRISM.
 One-electron integral symmetry used in STVInt
 NBasis=    92 RedAO= T EigKep=  3.43D-04  NBF=    62    30
 NBsUse=    92 1.00D-06 EigRej= -1.00D+00 NBFU=    62    30
 Leave Link  302 at Wed Feb  8 13:51:31 2023, MaxMem=   754974720 cpu:               2.9 elap:               1.0
 (Enter /opt/cluster/programs/g16-c.01/g16/l303.exe)
 DipDrv:  MaxL=1.
 Leave Link  303 at Wed Feb  8 13:51:31 2023, MaxMem=   754974720 cpu:               0.2 elap:               0.1
 (Enter /opt/cluster/programs/g16-c.01/g16/l401.exe)
 ExpMin= 2.53D-02 ExpMax= 1.53D+04 ExpMxC= 5.22D+02 IAcc=3 IRadAn=         5 AccDes= 0.00D+00
 Harris functional with IExCor=  205 and IRadAn=       5 diagonalized for initial guess.
 HarFok:  IExCor=  205 AccDes= 0.00D+00 IRadAn=         5 IDoV= 1 UseB2=F ITyADJ=14
 ICtDFT=  3500011 ScaDFX=  1.000000  1.000000  1.000000  1.000000
 FoFCou: FMM=F IPFlag=           0 FMFlag=      100000 FMFlg1=           0
         NFxFlg=           0 DoJE=T BraDBF=F KetDBF=T FulRan=T
         wScrn=  0.000000 ICntrl=       500 IOpCl=  0 I1Cent=   200000004 NGrid=           0
         NMat0=    1 NMatS0=      1 NMatT0=    0 NMatD0=    1 NMtDS0=    0 NMtDT0=    0
 Petite list used in FoFCou.
 Harris En= -76.1534276489918    
 JPrj=0 DoOrth=F DoCkMO=F.
 Initial guess orbital symmetries:
       Occupied  (A') (A') (A') (A') (A")
       Virtual   (A') (A') (A') (A") (A') (A') (A') (A') (A") (A')
                 (A") (A') (A') (A') (A') (A') (A') (A") (A") (A')
                 (A') (A") (A") (A') (A") (A') (A') (A') (A') (A")
                 (A') (A') (A") (A') (A") (A') (A") (A') (A') (A')
                 (A') (A") (A") (A') (A') (A') (A") (A') (A") (A')
                 (A') (A') (A") (A') (A') (A") (A") (A') (A') (A")
                 (A") (A') (A") (A') (A') (A') (A') (A") (A') (A')
                 (A") (A') (A') (A') (A") (A') (A") (A') (A") (A")
                 (A') (A") (A') (A') (A') (A') (A')
 The electronic state of the initial guess is 1-A'.
 Leave Link  401 at Wed Feb  8 13:51:32 2023, MaxMem=   754974720 cpu:               0.6 elap:               0.2
 (Enter /opt/cluster/programs/g16-c.01/g16/l502.exe)
 Keep R1 ints in memory in symmetry-blocked form, NReq=13818732.
 FoFCou: FMM=F IPFlag=           0 FMFlag=           0 FMFlg1=           0
         NFxFlg=           0 DoJE=F BraDBF=F KetDBF=F FulRan=T
         wScrn=  0.000000 ICntrl=       600 IOpCl=  0 I1Cent=           0 NGrid=           0
         NMat0=    1 NMatS0=   4278 NMatT0=    0 NMatD0=    1 NMtDS0=    0 NMtDT0=    0
 Petite list used in FoFCou.
 Closed shell SCF:
 Using DIIS extrapolation, IDIIS=  1040.
 NGot=   754974720 LenX=   750285684 LenY=   750274218
 Requested convergence on RMS density matrix=1.00D-08 within 200 cycles.
 Requested convergence on MAX density matrix=1.00D-06.
 Requested convergence on             energy=1.00D-06.
 No special actions if energy rises.

 Cycle   1  Pass 1  IDiag  1:
 E= -75.9664743365139    
 DIIS: error= 6.51D-02 at cycle   1 NSaved=   1.
 NSaved= 1 IEnMin= 1 EnMin= -75.9664743365139     IErMin= 1 ErrMin= 6.51D-02
 ErrMax= 6.51D-02  0.00D+00 EMaxC= 1.00D-01 BMatC= 2.12D-01 BMatP= 2.12D-01
 IDIUse=3 WtCom= 3.49D-01 WtEn= 6.51D-01
 Coeff-Com:  0.100D+01
 Coeff-En:   0.100D+01
 Coeff:      0.100D+01
 Gap=     0.449 Goal=   None    Shift=    0.000
 GapD=    0.449 DampG=2.000 DampE=0.500 DampFc=1.0000 IDamp=-1.
 RMSDP=2.20D-03 MaxDP=5.03D-02              OVMax= 1.24D-01

 Cycle   2  Pass 1  IDiag  1:
 E= -76.0225942879880     Delta-E=       -0.056119951474 Rises=F Damp=F
 DIIS: error= 4.11D-02 at cycle   2 NSaved=   2.
 NSaved= 2 IEnMin= 2 EnMin= -76.0225942879880     IErMin= 2 ErrMin= 4.11D-02
 ErrMax= 4.11D-02  0.00D+00 EMaxC= 1.00D-01 BMatC= 6.05D-02 BMatP= 2.12D-01
 IDIUse=3 WtCom= 5.89D-01 WtEn= 4.11D-01
 Coeff-Com:  0.321D+00 0.679D+00
 Coeff-En:   0.186D+00 0.814D+00
 Coeff:      0.265D+00 0.735D+00
 Gap=     0.571 Goal=   None    Shift=    0.000
 RMSDP=1.31D-03 MaxDP=3.40D-02 DE=-5.61D-02 OVMax= 6.55D-02

 Cycle   3  Pass 1  IDiag  1:
 E= -76.0577137417645     Delta-E=       -0.035119453776 Rises=F Damp=F
 DIIS: error= 9.04D-03 at cycle   3 NSaved=   3.
 NSaved= 3 IEnMin= 3 EnMin= -76.0577137417645     IErMin= 3 ErrMin= 9.04D-03
 ErrMax= 9.04D-03  0.00D+00 EMaxC= 1.00D-01 BMatC= 3.09D-03 BMatP= 6.05D-02
 IDIUse=3 WtCom= 9.10D-01 WtEn= 9.04D-02
 Coeff-Com: -0.302D-01 0.153D+00 0.877D+00
 Coeff-En:   0.000D+00 0.000D+00 0.100D+01
 Coeff:     -0.275D-01 0.139D+00 0.888D+00
 Gap=     0.539 Goal=   None    Shift=    0.000
 RMSDP=2.26D-04 MaxDP=4.44D-03 DE=-3.51D-02 OVMax= 1.26D-02

 Cycle   4  Pass 1  IDiag  1:
 E= -76.0595944971039     Delta-E=       -0.001880755339 Rises=F Damp=F
 DIIS: error= 6.66D-04 at cycle   4 NSaved=   4.
 NSaved= 4 IEnMin= 4 EnMin= -76.0595944971039     IErMin= 4 ErrMin= 6.66D-04
 ErrMax= 6.66D-04  0.00D+00 EMaxC= 1.00D-01 BMatC= 1.40D-05 BMatP= 3.09D-03
 IDIUse=3 WtCom= 9.93D-01 WtEn= 6.66D-03
 Coeff-Com:  0.637D-02-0.544D-01-0.226D+00 0.127D+01
 Coeff-En:   0.000D+00 0.000D+00 0.000D+00 0.100D+01
 Coeff:      0.633D-02-0.540D-01-0.224D+00 0.127D+01
 Gap=     0.541 Goal=   None    Shift=    0.000
 RMSDP=3.47D-05 MaxDP=7.04D-04 DE=-1.88D-03 OVMax= 2.17D-03

 Cycle   5  Pass 1  IDiag  1:
 E= -76.0596159486224     Delta-E=       -0.000021451518 Rises=F Damp=F
 DIIS: error= 1.74D-04 at cycle   5 NSaved=   5.
 NSaved= 5 IEnMin= 5 EnMin= -76.0596159486224     IErMin= 5 ErrMin= 1.74D-04
 ErrMax= 1.74D-04  0.00D+00 EMaxC= 1.00D-01 BMatC= 5.92D-07 BMatP= 1.40D-05
 IDIUse=3 WtCom= 9.98D-01 WtEn= 1.74D-03
 Coeff-Com:  0.201D-03 0.297D-02 0.788D-02-0.294D+00 0.128D+01
 Coeff-En:   0.000D+00 0.000D+00 0.000D+00 0.000D+00 0.100D+01
 Coeff:      0.200D-03 0.297D-02 0.787D-02-0.293D+00 0.128D+01
 Gap=     0.542 Goal=   None    Shift=    0.000
 RMSDP=1.04D-05 MaxDP=1.99D-04 DE=-2.15D-05 OVMax= 6.84D-04

 Cycle   6  Pass 1  IDiag  1:
 E= -76.0596173800749     Delta-E=       -0.000001431453 Rises=F Damp=F
 DIIS: error= 2.39D-05 at cycle   6 NSaved=   6.
 NSaved= 6 IEnMin= 6 EnMin= -76.0596173800749     IErMin= 6 ErrMin= 2.39D-05
 ErrMax= 2.39D-05  0.00D+00 EMaxC= 1.00D-01 BMatC= 1.57D-08 BMatP= 5.92D-07
 IDIUse=1 WtCom= 1.00D+00 WtEn= 0.00D+00
 Coeff-Com: -0.223D-03 0.890D-03 0.389D-02 0.317D-01-0.334D+00 0.130D+01
 Coeff:     -0.223D-03 0.890D-03 0.389D-02 0.317D-01-0.334D+00 0.130D+01
 Gap=     0.542 Goal=   None    Shift=    0.000
 RMSDP=1.98D-06 MaxDP=4.48D-05 DE=-1.43D-06 OVMax= 1.35D-04

 Cycle   7  Pass 1  IDiag  1:
 E= -76.0596174262977     Delta-E=       -0.000000046223 Rises=F Damp=F
 DIIS: error= 4.02D-06 at cycle   7 NSaved=   7.
 NSaved= 7 IEnMin= 7 EnMin= -76.0596174262977     IErMin= 7 ErrMin= 4.02D-06
 ErrMax= 4.02D-06  0.00D+00 EMaxC= 1.00D-01 BMatC= 7.17D-10 BMatP= 1.57D-08
 IDIUse=1 WtCom= 1.00D+00 WtEn= 0.00D+00
 Coeff-Com:  0.204D-04-0.297D-03-0.111D-02 0.134D-01-0.253D-01-0.146D+00
 Coeff-Com:  0.116D+01
 Coeff:      0.204D-04-0.297D-03-0.111D-02 0.134D-01-0.253D-01-0.146D+00
 Coeff:      0.116D+01
 Gap=     0.542 Goal=   None    Shift=    0.000
 RMSDP=2.91D-07 MaxDP=6.48D-06 DE=-4.62D-08 OVMax= 2.34D-05

 Cycle   8  Pass 1  IDiag  1:
 E= -76.0596174278812     Delta-E=       -0.000000001583 Rises=F Damp=F
 DIIS: error= 8.96D-07 at cycle   8 NSaved=   8.
 NSaved= 8 IEnMin= 8 EnMin= -76.0596174278812     IErMin= 8 ErrMin= 8.96D-07
 ErrMax= 8.96D-07  0.00D+00 EMaxC= 1.00D-01 BMatC= 4.05D-11 BMatP= 7.17D-10
 IDIUse=1 WtCom= 1.00D+00 WtEn= 0.00D+00
 Coeff-Com:  0.815D-05 0.153D-04 0.570D-04-0.500D-02 0.242D-01-0.356D-01
 Coeff-Com: -0.307D+00 0.132D+01
 Coeff:      0.815D-05 0.153D-04 0.570D-04-0.500D-02 0.242D-01-0.356D-01
 Coeff:     -0.307D+00 0.132D+01
 Gap=     0.542 Goal=   None    Shift=    0.000
 RMSDP=9.64D-08 MaxDP=2.02D-06 DE=-1.58D-09 OVMax= 6.31D-06

 Cycle   9  Pass 1  IDiag  1:
 E= -76.0596174279850     Delta-E=       -0.000000000104 Rises=F Damp=F
 DIIS: error= 1.33D-07 at cycle   9 NSaved=   9.
 NSaved= 9 IEnMin= 9 EnMin= -76.0596174279850     IErMin= 9 ErrMin= 1.33D-07
 ErrMax= 1.33D-07  0.00D+00 EMaxC= 1.00D-01 BMatC= 5.40D-13 BMatP= 4.05D-11
 IDIUse=1 WtCom= 1.00D+00 WtEn= 0.00D+00
 Coeff-Com: -0.171D-05 0.295D-05 0.823D-05 0.589D-03-0.341D-02 0.816D-02
 Coeff-Com:  0.358D-01-0.250D+00 0.121D+01
 Coeff:     -0.171D-05 0.295D-05 0.823D-05 0.589D-03-0.341D-02 0.816D-02
 Coeff:      0.358D-01-0.250D+00 0.121D+01
 Gap=     0.542 Goal=   None    Shift=    0.000
 RMSDP=1.42D-08 MaxDP=3.15D-07 DE=-1.04D-10 OVMax= 6.35D-07

 Cycle  10  Pass 1  IDiag  1:
 E= -76.0596174279862     Delta-E=       -0.000000000001 Rises=F Damp=F
 DIIS: error= 2.96D-08 at cycle  10 NSaved=  10.
 NSaved=10 IEnMin=10 EnMin= -76.0596174279862     IErMin=10 ErrMin= 2.96D-08
 ErrMax= 2.96D-08  0.00D+00 EMaxC= 1.00D-01 BMatC= 2.16D-14 BMatP= 5.40D-13
 IDIUse=1 WtCom= 1.00D+00 WtEn= 0.00D+00
 Coeff-Com:  0.109D-06-0.982D-06-0.296D-05 0.188D-04 0.356D-04-0.677D-03
 Coeff-Com:  0.241D-02 0.686D-02-0.219D+00 0.121D+01
 Coeff:      0.109D-06-0.982D-06-0.296D-05 0.188D-04 0.356D-04-0.677D-03
 Coeff:      0.241D-02 0.686D-02-0.219D+00 0.121D+01
 Gap=     0.542 Goal=   None    Shift=    0.000
 RMSDP=2.79D-09 MaxDP=4.52D-08 DE=-1.19D-12 OVMax= 1.11D-07

 SCF Done:  E(RHF) =  -76.0596174280     A.U. after   10 cycles
            NFock= 10  Conv=0.28D-08     -V/T= 2.0000
 KE= 7.605682088865D+01 PE=-1.995078178779D+02 EE= 3.796614874020D+01
 Leave Link  502 at Wed Feb  8 13:51:32 2023, MaxMem=   754974720 cpu:               2.3 elap:               0.7
 (Enter /opt/cluster/programs/g16-c.01/g16/l801.exe)
 Windowed orbitals will be sorted by symmetry type.
 ExpMin= 2.53D-02 ExpMax= 1.53D+04 ExpMxC= 5.22D+02 IAcc=3 IRadAn=         5 AccDes= 0.00D+00
 HarFok:  IExCor=  205 AccDes= 0.00D+00 IRadAn=         5 IDoV=-2 UseB2=F ITyADJ=14
 ICtDFT= 12500011 ScaDFX=  1.000000  1.000000  1.000000  1.000000
 Largest valence mixing into a core orbital is  1.09D-04
 Largest core mixing into a valence orbital is  1.63D-05
 Range of M.O.s used for correlation:     2    92
 NBasis=    92 NAE=     5 NBE=     5 NFC=     1 NFV=     0
 NROrb=     91 NOA=     4 NOB=     4 NVA=    87 NVB=    87

 **** Warning!!: The largest alpha MO coefficient is  0.16603556D+02

 Leave Link  801 at Wed Feb  8 13:51:32 2023, MaxMem=   754974720 cpu:               0.3 elap:               0.1
 (Enter /opt/cluster/programs/g16-c.01/g16/l804.exe)
 Closed-shell transformation, MDV=   754974720 ITran=4 ISComp=2.
 Unit  1 TFree=        277501 TCopy=        343607.
 Semi-Direct transformation.
 ModeAB=           2 MOrb=             4 LenV=     754586778
 LASXX=       736380 LTotXX=      736380 LenRXX=      736380
 LTotAB=      763744 MaxLAS=     2025660 LenRXY=     2025660
 NonZer=     2107560 LenScr=     3929600 LnRSAI=           0
 LnScr1=           0 LExtra=           0 Total=      6691640
 MaxDsk=          -1 SrtSym=           F ITran=            4
 DoSDTr:  NPSUse=  4
 JobTyp=0 Pass  1:  I=   1 to   4.
 (rs|ai) integrals will be sorted in core.
 Complete sort for first half transformation.
 First half transformation complete.
 Complete sort for second half transformation.
 Second half transformation complete.
 Spin components of T(2) and E(2):
     alpha-alpha T2 =       0.7919439576D-02 E2=     -0.3233555927D-01
     alpha-beta  T2 =       0.4586978822D-01 E2=     -0.2017068666D+00
     beta-beta   T2 =       0.7919439576D-02 E2=     -0.3233555927D-01
 ANorm=    0.1030392482D+01
 E2 =    -0.2663779851D+00 EUMP2 =    -0.76325995413120D+02
 Leave Link  804 at Wed Feb  8 13:51:35 2023, MaxMem=   754974720 cpu:               8.5 elap:               3.1
 (Enter /opt/cluster/programs/g16-c.01/g16/l913.exe)
 CIDS:  MDV=   754974720.
 Frozen-core window:  NFC=   1 NFV=   0.
 IFCWin=0 IBDFC=1 NFBD=     0     0 NFCmp=     0     0 NFFFC=     0     0
 Using DD3R+UMP44R for 1st iteration.
 Using DD4RQ for 2nd and later iterations.
 Keep R2 and R3 ints in memory in symmetry-blocked form, NReq=13979827.
 FoFCou: FMM=F IPFlag=           0 FMFlag=           0 FMFlg1=           0
         NFxFlg=           0 DoJE=F BraDBF=F KetDBF=F FulRan=T
         wScrn=  0.000000 ICntrl=       600 IOpCl=  0 I1Cent=           0 NGrid=           0
         NMat0=    1 NMatS0=   4278 NMatT0=    0 NMatD0=    1 NMtDS0=    0 NMtDT0=    0
 Petite list used in FoFCou.
 CIDS: In Core Option IDoMem=           1.
 CCSD(T)
 =======
 Iterations=  50 Convergence= 0.100D-06
 Produce multiple copies of IABC intergrals
 Iteration Nr.   1
 **********************
 DD1Dir will call FoFMem   1 times, MxPair=        20
 NAB=    10 NAA=     0 NBB=     0.
 MP4(R+Q)=  0.39587373D-02
 Maximum subspace dimension=  5
 A-vector RMS=  2.7426935D-03 Max=  1.1521537D-02 conv= 1.00D-05.
 RLE energy=       -0.2655374083
 E3=       -0.31547312D-02        EUMP3=      -0.76329150144D+02
 E4(DQ)=   -0.47865369D-03        UMP4(DQ)=   -0.76329628798D+02
 E4(SDQ)=  -0.22435239D-02        UMP4(SDQ)=  -0.76331393668D+02
 VARIATIONAL ENERGIES WITH THE FIRST-ORDER WAVEFUNCTION:
 DE(Corr)= -0.26553475     E(Corr)=     -76.325152181    
 NORM(A)=   0.10303049D+01
 Iteration Nr.   2
 **********************
 DD1Dir will call FoFMem   1 times, MxPair=        20
 NAB=    10 NAA=     0 NBB=     0.
 A-vector RMS=  2.8643644D-04 Max=  2.0673137D-03 conv= 1.00D-05.
 RLE energy=       -0.2710069859
 DE(Corr)= -0.27063830     E(CORR)=     -76.330255729     Delta=-5.10D-03
 NORM(A)=   0.10322577D+01
 Iteration Nr.   3
 **********************
 DD1Dir will call FoFMem   1 times, MxPair=        20
 NAB=    10 NAA=     0 NBB=     0.
 A-vector RMS=  3.7523309D-04 Max=  2.0945424D-03 conv= 1.00D-05.
 RLE energy=       -0.2712882178
 DE(Corr)= -0.27094898     E(CORR)=     -76.330566413     Delta=-3.11D-04
 NORM(A)=   0.10326250D+01
 Iteration Nr.   4
 **********************
 DD1Dir will call FoFMem   1 times, MxPair=        20
 NAB=    10 NAA=     0 NBB=     0.
 A-vector RMS=  5.5605163D-05 Max=  3.5033953D-04 conv= 1.00D-05.
 RLE energy=       -0.2713175143
 DE(Corr)= -0.27129273     E(CORR)=     -76.330910161     Delta=-3.44D-04
 NORM(A)=   0.10327246D+01
 Iteration Nr.   5
 **********************
 DD1Dir will call FoFMem   1 times, MxPair=        20
 NAB=    10 NAA=     0 NBB=     0.
 A-vector RMS=  2.7923625D-05 Max=  1.8108822D-04 conv= 1.00D-05.
 RLE energy=       -0.2713279182
 DE(Corr)= -0.27132331     E(CORR)=     -76.330940738     Delta=-3.06D-05
 NORM(A)=   0.10327445D+01
 Iteration Nr.   6
 **********************
 DD1Dir will call FoFMem   1 times, MxPair=        20
 NAB=    10 NAA=     0 NBB=     0.
 A-vector RMS=  6.4601650D-06 Max=  3.9065713D-05 conv= 1.00D-05.
 RLE energy=       -0.2713247641
 DE(Corr)= -0.27132555     E(CORR)=     -76.330942982     Delta=-2.24D-06
 NORM(A)=   0.10327462D+01
 Iteration Nr.   7
 **********************
 DD1Dir will call FoFMem   1 times, MxPair=        20
 NAB=    10 NAA=     0 NBB=     0.
 A-vector RMS=  2.1510860D-06 Max=  1.0736995D-05 conv= 1.00D-05.
 RLE energy=       -0.2713247281
 DE(Corr)= -0.27132552     E(CORR)=     -76.330942950     Delta= 3.16D-08
 NORM(A)=   0.10327468D+01
 Iteration Nr.   8
 **********************
 DD1Dir will call FoFMem   1 times, MxPair=        20
 NAB=    10 NAA=     0 NBB=     0.
 A-vector RMS=  8.1524725D-07 Max=  5.0279177D-06 conv= 1.00D-05.
 RLE energy=       -0.2713252286
 DE(Corr)= -0.27132531     E(CORR)=     -76.330942742     Delta= 2.08D-07
 NORM(A)=   0.10327471D+01
 Iteration Nr.   9
 **********************
 DD1Dir will call FoFMem   1 times, MxPair=        20
 NAB=    10 NAA=     0 NBB=     0.
 A-vector RMS=  1.8708171D-07 Max=  9.2316522D-07 conv= 1.00D-05.
 RLE energy=       -0.2713253106
 DE(Corr)= -0.27132532     E(CORR)=     -76.330942751     Delta=-8.55D-09
 NORM(A)=   0.10327472D+01
 CI/CC converged in    9 iterations to DelEn=-8.55D-09 Conv= 1.00D-07 ErrA1= 1.87D-07 Conv= 1.00D-05
 Wavefunction amplitudes converged. E(Corr)=     -76.330942751    
 Largest amplitude= 1.99D-02
 IPart=  1 IA=    6   11.23% done.
 IPart=  3 IA=   11   21.79% done.
 IPart=  3 IA=   16   31.68% done.
 IPart=  4 IA=   21   40.90% done.
 IPart=  3 IA=   27   51.08% done.
 IPart=  1 IA=   33   60.30% done.
 IPart=  1 IA=   41   71.10% done.
 IPart=  1 IA=   49   80.19% done.
 IPart=  3 IA=   61   90.62% done.
 Time for triples=        6.32 seconds.
 T4(CCSD)= -0.86841950D-02
 T5(CCSD)=  0.29997412D-03
 CCSD(T)= -0.76339326972D+02
 Discarding MO integrals.
 Leave Link  913 at Wed Feb  8 13:51:39 2023, MaxMem=   754974720 cpu:              12.1 elap:               3.3
 (Enter /opt/cluster/programs/g16-c.01/g16/l601.exe)
 Copying SCF densities to generalized density rwf, IOpCl= 0 IROHF=0.

 **********************************************************************

            Population analysis using the SCF Density.

 **********************************************************************

 Orbital symmetries:
       Occupied  (A') (A') (A') (A') (A")
       Virtual   (A') (A') (A') (A") (A') (A') (A') (A') (A") (A")
                 (A') (A') (A') (A') (A') (A') (A') (A") (A") (A')
                 (A") (A') (A') (A") (A") (A') (A') (A') (A') (A")
                 (A') (A") (A') (A') (A") (A') (A") (A') (A') (A')
                 (A') (A") (A') (A") (A') (A") (A') (A') (A') (A")
                 (A') (A') (A") (A') (A') (A") (A") (A') (A') (A")
                 (A') (A") (A") (A') (A') (A') (A') (A") (A') (A')
                 (A") (A') (A') (A') (A") (A') (A") (A") (A') (A")
                 (A') (A") (A') (A') (A') (A') (A')
 The electronic state is 1-A'.
 Alpha  occ. eigenvalues --  -20.56203  -1.36519  -0.73488  -0.58538  -0.51188
 Alpha virt. eigenvalues --    0.02982   0.04766   0.13621   0.15693   0.17522
 Alpha virt. eigenvalues --    0.18251   0.23016   0.24597   0.26482   0.30393
 Alpha virt. eigenvalues --    0.31265   0.36639   0.44182   0.47179   0.60268
 Alpha virt. eigenvalues --    0.65932   0.71079   0.72095   0.73078   0.83685
 Alpha virt. eigenvalues --    0.84761   0.88592   0.91753   0.91814   0.92450
 Alpha virt. eigenvalues --    0.93188   0.96890   1.02816   1.06157   1.08655
 Alpha virt. eigenvalues --    1.11708   1.18058   1.18670   1.25321   1.51862
 Alpha virt. eigenvalues --    1.54565   1.60751   1.78742   1.82377   2.01568
 Alpha virt. eigenvalues --    2.14758   2.26366   2.31734   2.32469   2.42164
 Alpha virt. eigenvalues --    2.42281   2.43125   2.49505   2.66932   2.69217
 Alpha virt. eigenvalues --    2.79458   2.84693   2.89561   3.68087   3.79901
 Alpha virt. eigenvalues --    4.03112   4.11979   4.19975   4.28621   4.32729
 Alpha virt. eigenvalues --    4.38760   4.39127   4.43282   4.52220   4.74628
 Alpha virt. eigenvalues --    4.88955   5.16656   5.21619   5.32154   5.47422
 Alpha virt. eigenvalues --    5.60513   5.73882   6.21072   6.52217   6.71904
 Alpha virt. eigenvalues --    6.92868   7.14068   7.26633   7.30504   7.33264
 Alpha virt. eigenvalues --    7.41628   7.44347   7.64755   7.93792   8.06472
 Alpha virt. eigenvalues --    8.91011  16.64173
          Condensed to atoms (all electrons):
               1          2          3
     1  O    7.833821   0.281867   0.279847
     2  H    0.281867   0.486991   0.007114
     3  H    0.279847   0.007114   0.541532
 Mulliken charges:
               1
     1  O   -0.395535
     2  H    0.224028
     3  H    0.171507
 Sum of Mulliken charges =   0.00000
 Mulliken charges with hydrogens summed into heavy atoms:
               1
     1  O    0.000000
 Electronic spatial extent (au):  <R**2>=             19.1742
 Charge=             -0.0000 electrons
 Dipole moment (field-independent basis, Debye):
    X=             -0.0212    Y=             -1.9321    Z=             -0.0000  Tot=              1.9322
 Quadrupole moment (field-independent basis, Debye-Ang):
   XX=             -4.2217   YY=             -6.2774   ZZ=             -7.5061
   XY=             -0.1419   XZ=              0.0000   YZ=             -0.0000
 Traceless Quadrupole moment (field-independent basis, Debye-Ang):
   XX=              1.7800   YY=             -0.2756   ZZ=             -1.5044
   XY=             -0.1419   XZ=              0.0000   YZ=             -0.0000
 Octapole moment (field-independent basis, Debye-Ang**2):
  XXX=             -0.0685  YYY=             -1.1317  ZZZ=             -0.0000  XYY=              0.0955
  XXY=             -1.3355  XXZ=              0.0000  XZZ=             -0.0261  YZZ=             -0.2628
  YYZ=              0.0000  XYZ=             -0.0000
 Hexadecapole moment (field-independent basis, Debye-Ang**3):
 XXXX=             -5.7428 YYYY=             -7.0612 ZZZZ=             -6.6597 XXXY=             -0.0017
 XXXZ=             -0.0000 YYYX=             -0.0035 YYYZ=              0.0000 ZZZX=             -0.0000
 ZZZY=              0.0000 XXYY=             -1.8408 XXZZ=             -2.3840 YYZZ=             -2.3302
 XXYZ=             -0.0000 YYXZ=             -0.0000 ZZXY=              0.0336
 N-N= 9.425230821018D+00 E-N=-1.995078177798D+02  KE= 7.605682088865D+01
 Symmetry A'   KE= 7.159464403995D+01
 Symmetry A"   KE= 4.462176848692D+00
 Leave Link  601 at Wed Feb  8 13:51:39 2023, MaxMem=   754974720 cpu:               0.9 elap:               0.4
 (Enter /opt/cluster/programs/g16-c.01/g16/l9999.exe)
 Unable to Open any file for archive entry.
 1\1\GINC-NODE66\SP\RCCSD(T)-FC\Aug-CC-pVTZ\H2O1\BOITTIER\08-Feb-2023\0
 \\#P CCSD(T)/aug-cc-pVTZ scf(maxcycle=200)\\Gaussian input\\0,1\O,0,0.
 ,0.11751,0.\H,0,0.7578497316,-0.4701504329,0.\H,0,-0.7376384426,-0.413
 6872591,0.\\Version=ES64L-G16RevC.01\State=1-A'\HF=-76.0596174\MP2=-76
 .3259954\MP3=-76.3291501\MP4D=-76.3335875\MP4DQ=-76.3296288\MP4SDQ=-76
 .3313937\CCSD=-76.3309428\CCSD(T)=-76.339327\RMSD=2.794e-09\PG=CS [SG(
 H2O1)]\\@
 The archive entry for this job was punched.


 Everything starts as somebody's daydream.
                           -- Larry Niven
 Job cpu time:       0 days  0 hours  0 minutes 29.1 seconds.
 Elapsed time:       0 days  0 hours  0 minutes  9.2 seconds.
 File lengths (MBytes):  RWF=     75 Int=      0 D2E=      0 Chk=      2 Scr=      1
 Normal termination of Gaussian 16 at Wed Feb  8 13:51:39 2023.
