 Entering Gaussian System, Link 0=/opt/cluster/programs/g16-c.01/g16/g16
 Input=/scratch/boittier/jobs/tmp.7311856/gaussian_28_water_hf_adz2.com
 Output=/scratch/boittier/jobs/tmp.7311856/gaussian_28_water_hf_adz2.out
 Initial command:
 /opt/cluster/programs/g16-c.01/g16/l1.exe "/scratch/boittier/jobs/tmp.7311856/Gau-158132.inp" -scrdir="/scratch/boittier/jobs/tmp.7311856/"
 Entering Link 1 = /opt/cluster/programs/g16-c.01/g16/l1.exe PID=    158134.
  
 Copyright (c) 1988-2019, Gaussian, Inc.  All Rights Reserved.
  
 This is part of the Gaussian(R) 16 program.  It is based on
 the Gaussian(R) 09 system (copyright 2009, Gaussian, Inc.),
 the Gaussian(R) 03 system (copyright 2003, Gaussian, Inc.),
 the Gaussian(R) 98 system (copyright 1998, Gaussian, Inc.),
 the Gaussian(R) 94 system (copyright 1995, Gaussian, Inc.),
 the Gaussian 92(TM) system (copyright 1992, Gaussian, Inc.),
 the Gaussian 90(TM) system (copyright 1990, Gaussian, Inc.),
 the Gaussian 88(TM) system (copyright 1988, Gaussian, Inc.),
 the Gaussian 86(TM) system (copyright 1986, Carnegie Mellon
 University), and the Gaussian 82(TM) system (copyright 1983,
 Carnegie Mellon University). Gaussian is a federally registered
 trademark of Gaussian, Inc.
  
 This software contains proprietary and confidential information,
 including trade secrets, belonging to Gaussian, Inc.
  
 This software is provided under written license and may be
 used, copied, transmitted, or stored only in accord with that
 written license.
  
 The following legend is applicable only to US Government
 contracts under FAR:
  
                    RESTRICTED RIGHTS LEGEND
  
 Use, reproduction and disclosure by the US Government is
 subject to restrictions as set forth in subparagraphs (a)
 and (c) of the Commercial Computer Software - Restricted
 Rights clause in FAR 52.227-19.
  
 Gaussian, Inc.
 340 Quinnipiac St., Bldg. 40, Wallingford CT 06492
  
  
 ---------------------------------------------------------------
 Warning -- This program may not be used in any manner that
 competes with the business of Gaussian, Inc. or will provide
 assistance to any competitor of Gaussian, Inc.  The licensee
 of this program is prohibited from giving any competitor of
 Gaussian, Inc. access to this program.  By using this program,
 the user acknowledges that Gaussian, Inc. is engaged in the
 business of creating and licensing software in the field of
 computational chemistry and represents and warrants to the
 licensee that it is not a competitor of Gaussian, Inc. and that
 it will not use this program in any manner prohibited above.
 ---------------------------------------------------------------
  

 Cite this work as:
 Gaussian 16, Revision C.01,
 M. J. Frisch, G. W. Trucks, H. B. Schlegel, G. E. Scuseria, 
 M. A. Robb, J. R. Cheeseman, G. Scalmani, V. Barone, 
 G. A. Petersson, H. Nakatsuji, X. Li, M. Caricato, A. V. Marenich, 
 J. Bloino, B. G. Janesko, R. Gomperts, B. Mennucci, H. P. Hratchian, 
 J. V. Ortiz, A. F. Izmaylov, J. L. Sonnenberg, D. Williams-Young, 
 F. Ding, F. Lipparini, F. Egidi, J. Goings, B. Peng, A. Petrone, 
 T. Henderson, D. Ranasinghe, V. G. Zakrzewski, J. Gao, N. Rega, 
 G. Zheng, W. Liang, M. Hada, M. Ehara, K. Toyota, R. Fukuda, 
 J. Hasegawa, M. Ishida, T. Nakajima, Y. Honda, O. Kitao, H. Nakai, 
 T. Vreven, K. Throssell, J. A. Montgomery, Jr., J. E. Peralta, 
 F. Ogliaro, M. J. Bearpark, J. J. Heyd, E. N. Brothers, K. N. Kudin, 
 V. N. Staroverov, T. A. Keith, R. Kobayashi, J. Normand, 
 K. Raghavachari, A. P. Rendell, J. C. Burant, S. S. Iyengar, 
 J. Tomasi, M. Cossi, J. M. Millam, M. Klene, C. Adamo, R. Cammi, 
 J. W. Ochterski, R. L. Martin, K. Morokuma, O. Farkas, 
 J. B. Foresman, and D. J. Fox, Gaussian, Inc., Wallingford CT, 2019.
 
 ******************************************
 Gaussian 16:  ES64L-G16RevC.01  3-Jul-2019
                20-Feb-2023 
 ******************************************
 %nproc=4
 Will use up to    4 processors via shared memory.
 %mem=5760MB
 %chk=gaussian_28_water_hf_adz2.chk
 -----------------------------------
 #P HF/aug-cc-pVDZ scf(maxcycle=200)
 -----------------------------------
 1/38=1,172=1/1;
 2/12=2,17=6,18=5,40=1/2;
 3/5=16,7=10,11=9,25=1,30=1/1,2,3;
 4//1;
 5/5=2,7=200,38=5/2;
 6/7=2,8=2,9=2,10=2,28=1/1;
 99/5=1,9=1/99;
 Leave Link    1 at Mon Feb 20 10:14:54 2023, MaxMem=   754974720 cpu:               0.1 elap:               0.0
 (Enter /opt/cluster/programs/g16-c.01/g16/l101.exe)
 --------------
 Gaussian input
 --------------
 Symbolic Z-matrix:
 Charge =  0 Multiplicity = 1
 O                     0.        0.11751   0. 
 H                     0.71834  -0.43951   0. 
 H                    -0.71537  -0.52118   0. 
 
 ITRead=  0  0  0
 MicOpt= -1 -1 -1
 NAtoms=      3 NQM=        3 NQMF=       0 NMMI=      0 NMMIF=      0
                NMic=       0 NMicF=      0.
                    Isotopes and Nuclear Properties:
 (Nuclear quadrupole moments (NQMom) in fm**2, nuclear magnetic moments (NMagM)
  in nuclear magnetons)

  Atom         1           2           3
 IAtWgt=          16           1           1
 AtmWgt=  15.9949146   1.0078250   1.0078250
 NucSpn=           0           1           1
 AtZEff=  -0.0000000  -0.0000000  -0.0000000
 NQMom=    0.0000000   0.0000000   0.0000000
 NMagM=    0.0000000   2.7928460   2.7928460
 AtZNuc=   8.0000000   1.0000000   1.0000000
 Leave Link  101 at Mon Feb 20 10:14:55 2023, MaxMem=   754974720 cpu:               0.8 elap:               0.2
 (Enter /opt/cluster/programs/g16-c.01/g16/l202.exe)
                          Input orientation:                          
 ---------------------------------------------------------------------
 Center     Atomic      Atomic             Coordinates (Angstroms)
 Number     Number       Type             X           Y           Z
 ---------------------------------------------------------------------
      1          8           0        0.000000    0.117510    0.000000
      2          1           0        0.718337   -0.439511    0.000000
      3          1           0       -0.715370   -0.521181    0.000000
 ---------------------------------------------------------------------
                    Distance matrix (angstroms):
                    1          2          3
     1  O    0.000000
     2  H    0.909000   0.000000
     3  H    0.959000   1.436032   0.000000
 Stoichiometry    H2O
 Framework group  CS[SG(H2O)]
 Deg. of freedom     3
 Full point group                 CS      NOp   2
 Largest Abelian subgroup         CS      NOp   2
 Largest concise Abelian subgroup C1      NOp   1
                         Standard orientation:                         
 ---------------------------------------------------------------------
 Center     Atomic      Atomic             Coordinates (Angstroms)
 Number     Number       Type             X           Y           Z
 ---------------------------------------------------------------------
      1          8           0        0.000000    0.119572    0.000000
      2          1           0        0.716953   -0.439230    0.000000
      3          1           0       -0.716953   -0.517343    0.000000
 ---------------------------------------------------------------------
 Rotational constants (GHZ):         795.9162763         484.0662030         301.0011277
 Leave Link  202 at Mon Feb 20 10:14:55 2023, MaxMem=   754974720 cpu:               0.0 elap:               0.0
 (Enter /opt/cluster/programs/g16-c.01/g16/l301.exe)
 Standard basis: Aug-CC-pVDZ (5D, 7F)
 Ernie: Thresh=  0.10000D-02 Tol=  0.10000D-05 Strict=F.
 Ernie:  2 primitive shells out of 39 were deleted.
 There are    32 symmetry adapted cartesian basis functions of A'  symmetry.
 There are    11 symmetry adapted cartesian basis functions of A"  symmetry.
 There are    30 symmetry adapted basis functions of A'  symmetry.
 There are    11 symmetry adapted basis functions of A"  symmetry.
    41 basis functions,    65 primitive gaussians,    43 cartesian basis functions
     5 alpha electrons        5 beta electrons
       nuclear repulsion energy         9.4401333226 Hartrees.
 IExCor=    0 DFT=F Ex=HF Corr=None ExCW=0 ScaHFX=  1.000000
 ScaDFX=  1.000000  1.000000  1.000000  1.000000 ScalE2=  1.000000  1.000000
 IRadAn=      5 IRanWt=     -1 IRanGd=            0 ICorTp=0 IEmpDi=  4
 NAtoms=    3 NActive=    3 NUniq=    3 SFac= 1.00D+00 NAtFMM=   60 NAOKFM=F Big=F
 Integral buffers will be    131072 words long.
 Raffenetti 1 integral format.
 Two-electron integral symmetry is turned on.
 Leave Link  301 at Mon Feb 20 10:14:55 2023, MaxMem=   754974720 cpu:               0.1 elap:               0.0
 (Enter /opt/cluster/programs/g16-c.01/g16/l302.exe)
 NPDir=0 NMtPBC=     1 NCelOv=     1 NCel=       1 NClECP=     1 NCelD=      1
         NCelK=      1 NCelE2=     1 NClLst=     1 CellRange=     0.0.
 One-electron integrals computed using PRISM.
 One-electron integral symmetry used in STVInt
 NBasis=    41 RedAO= T EigKep=  2.22D-03  NBF=    30    11
 NBsUse=    41 1.00D-06 EigRej= -1.00D+00 NBFU=    30    11
 Leave Link  302 at Mon Feb 20 10:14:55 2023, MaxMem=   754974720 cpu:               1.2 elap:               0.4
 (Enter /opt/cluster/programs/g16-c.01/g16/l303.exe)
 DipDrv:  MaxL=1.
 Leave Link  303 at Mon Feb 20 10:14:55 2023, MaxMem=   754974720 cpu:               0.3 elap:               0.1
 (Enter /opt/cluster/programs/g16-c.01/g16/l401.exe)
 ExpMin= 2.97D-02 ExpMax= 1.17D+04 ExpMxC= 4.01D+02 IAcc=3 IRadAn=         5 AccDes= 0.00D+00
 Harris functional with IExCor=  205 and IRadAn=       5 diagonalized for initial guess.
 HarFok:  IExCor=  205 AccDes= 0.00D+00 IRadAn=         5 IDoV= 1 UseB2=F ITyADJ=14
 ICtDFT=  3500011 ScaDFX=  1.000000  1.000000  1.000000  1.000000
 FoFCou: FMM=F IPFlag=           0 FMFlag=      100000 FMFlg1=           0
         NFxFlg=           0 DoJE=T BraDBF=F KetDBF=T FulRan=T
         wScrn=  0.000000 ICntrl=       500 IOpCl=  0 I1Cent=   200000004 NGrid=           0
         NMat0=    1 NMatS0=      1 NMatT0=    0 NMatD0=    1 NMtDS0=    0 NMtDT0=    0
 Petite list used in FoFCou.
 Harris En= -76.1230712859096    
 JPrj=0 DoOrth=F DoCkMO=F.
 Initial guess orbital symmetries:
       Occupied  (A') (A') (A') (A') (A")
       Virtual   (A') (A') (A') (A") (A') (A') (A') (A') (A") (A')
                 (A") (A') (A') (A') (A') (A') (A") (A') (A") (A')
                 (A") (A') (A') (A") (A') (A") (A') (A') (A') (A')
                 (A') (A") (A') (A") (A') (A')
 The electronic state of the initial guess is 1-A'.
 Leave Link  401 at Mon Feb 20 10:14:55 2023, MaxMem=   754974720 cpu:               0.8 elap:               0.3
 (Enter /opt/cluster/programs/g16-c.01/g16/l502.exe)
 Keep R1 ints in memory in symmetry-blocked form, NReq=1210696.
 FoFCou: FMM=F IPFlag=           0 FMFlag=           0 FMFlg1=           0
         NFxFlg=           0 DoJE=F BraDBF=F KetDBF=F FulRan=T
         wScrn=  0.000000 ICntrl=       600 IOpCl=  0 I1Cent=           0 NGrid=           0
         NMat0=    1 NMatS0=    861 NMatT0=    0 NMatD0=    1 NMtDS0=    0 NMtDT0=    0
 Petite list used in FoFCou.
 Closed shell SCF:
 Using DIIS extrapolation, IDIIS=  1040.
 NGot=   754974720 LenX=   754771907 LenY=   754769617
 Requested convergence on RMS density matrix=1.00D-08 within 200 cycles.
 Requested convergence on MAX density matrix=1.00D-06.
 Requested convergence on             energy=1.00D-06.
 No special actions if energy rises.

 Cycle   1  Pass 1  IDiag  1:
 E= -75.9603168567995    
 DIIS: error= 5.19D-02 at cycle   1 NSaved=   1.
 NSaved= 1 IEnMin= 1 EnMin= -75.9603168567995     IErMin= 1 ErrMin= 5.19D-02
 ErrMax= 5.19D-02  0.00D+00 EMaxC= 1.00D-01 BMatC= 1.21D-01 BMatP= 1.21D-01
 IDIUse=3 WtCom= 4.81D-01 WtEn= 5.19D-01
 Coeff-Com:  0.100D+01
 Coeff-En:   0.100D+01
 Coeff:      0.100D+01
 Gap=     0.458 Goal=   None    Shift=    0.000
 GapD=    0.458 DampG=2.000 DampE=0.500 DampFc=1.0000 IDamp=-1.
 RMSDP=6.42D-03 MaxDP=1.20D-01              OVMax= 1.18D-01

 Cycle   2  Pass 1  IDiag  1:
 E= -76.0075200379459     Delta-E=       -0.047203181146 Rises=F Damp=F
 DIIS: error= 3.94D-02 at cycle   2 NSaved=   2.
 NSaved= 2 IEnMin= 2 EnMin= -76.0075200379459     IErMin= 2 ErrMin= 3.94D-02
 ErrMax= 3.94D-02  0.00D+00 EMaxC= 1.00D-01 BMatC= 4.53D-02 BMatP= 1.21D-01
 IDIUse=3 WtCom= 6.06D-01 WtEn= 3.94D-01
 Coeff-Com:  0.369D+00 0.631D+00
 Coeff-En:   0.194D+00 0.806D+00
 Coeff:      0.300D+00 0.700D+00
 Gap=     0.566 Goal=   None    Shift=    0.000
 RMSDP=2.95D-03 MaxDP=5.44D-02 DE=-4.72D-02 OVMax= 5.85D-02

 Cycle   3  Pass 1  IDiag  1:
 E= -76.0382973114350     Delta-E=       -0.030777273489 Rises=F Damp=F
 DIIS: error= 4.85D-03 at cycle   3 NSaved=   3.
 NSaved= 3 IEnMin= 3 EnMin= -76.0382973114350     IErMin= 3 ErrMin= 4.85D-03
 ErrMax= 4.85D-03  0.00D+00 EMaxC= 1.00D-01 BMatC= 1.20D-03 BMatP= 4.53D-02
 IDIUse=3 WtCom= 9.51D-01 WtEn= 4.85D-02
 Coeff-Com: -0.373D-01 0.953D-01 0.942D+00
 Coeff-En:   0.000D+00 0.000D+00 0.100D+01
 Coeff:     -0.355D-01 0.907D-01 0.945D+00
 Gap=     0.547 Goal=   None    Shift=    0.000
 RMSDP=4.76D-04 MaxDP=8.19D-03 DE=-3.08D-02 OVMax= 9.13D-03

 Cycle   4  Pass 1  IDiag  1:
 E= -76.0391830399583     Delta-E=       -0.000885728523 Rises=F Damp=F
 DIIS: error= 5.80D-04 at cycle   4 NSaved=   4.
 NSaved= 4 IEnMin= 4 EnMin= -76.0391830399583     IErMin= 4 ErrMin= 5.80D-04
 ErrMax= 5.80D-04  0.00D+00 EMaxC= 1.00D-01 BMatC= 6.36D-06 BMatP= 1.20D-03
 IDIUse=3 WtCom= 9.94D-01 WtEn= 5.80D-03
 Coeff-Com:  0.937D-02-0.442D-01-0.335D+00 0.137D+01
 Coeff-En:   0.000D+00 0.000D+00 0.000D+00 0.100D+01
 Coeff:      0.932D-02-0.439D-01-0.333D+00 0.137D+01
 Gap=     0.548 Goal=   None    Shift=    0.000
 RMSDP=1.04D-04 MaxDP=9.97D-04 DE=-8.86D-04 OVMax= 2.02D-03

 Cycle   5  Pass 1  IDiag  1:
 E= -76.0391981581615     Delta-E=       -0.000015118203 Rises=F Damp=F
 DIIS: error= 1.49D-04 at cycle   5 NSaved=   5.
 NSaved= 5 IEnMin= 5 EnMin= -76.0391981581615     IErMin= 5 ErrMin= 1.49D-04
 ErrMax= 1.49D-04  0.00D+00 EMaxC= 1.00D-01 BMatC= 2.35D-07 BMatP= 6.36D-06
 IDIUse=3 WtCom= 9.99D-01 WtEn= 1.49D-03
 Coeff-Com: -0.100D-02 0.703D-02 0.518D-01-0.361D+00 0.130D+01
 Coeff-En:   0.000D+00 0.000D+00 0.000D+00 0.000D+00 0.100D+01
 Coeff:     -0.100D-02 0.701D-02 0.517D-01-0.360D+00 0.130D+01
 Gap=     0.548 Goal=   None    Shift=    0.000
 RMSDP=2.24D-05 MaxDP=3.35D-04 DE=-1.51D-05 OVMax= 4.57D-04

 Cycle   6  Pass 1  IDiag  1:
 E= -76.0391988406619     Delta-E=       -0.000000682500 Rises=F Damp=F
 DIIS: error= 2.34D-05 at cycle   6 NSaved=   6.
 NSaved= 6 IEnMin= 6 EnMin= -76.0391988406619     IErMin= 6 ErrMin= 2.34D-05
 ErrMax= 2.34D-05  0.00D+00 EMaxC= 1.00D-01 BMatC= 7.36D-09 BMatP= 2.35D-07
 IDIUse=1 WtCom= 1.00D+00 WtEn= 0.00D+00
 Coeff-Com: -0.216D-03 0.761D-03 0.538D-02-0.161D-02-0.206D+00 0.120D+01
 Coeff:     -0.216D-03 0.761D-03 0.538D-02-0.161D-02-0.206D+00 0.120D+01
 Gap=     0.548 Goal=   None    Shift=    0.000
 RMSDP=3.21D-06 MaxDP=6.50D-05 DE=-6.83D-07 OVMax= 8.50D-05

 Cycle   7  Pass 1  IDiag  1:
 E= -76.0391988617529     Delta-E=       -0.000000021091 Rises=F Damp=F
 DIIS: error= 4.97D-06 at cycle   7 NSaved=   7.
 NSaved= 7 IEnMin= 7 EnMin= -76.0391988617529     IErMin= 7 ErrMin= 4.97D-06
 ErrMax= 4.97D-06  0.00D+00 EMaxC= 1.00D-01 BMatC= 4.05D-10 BMatP= 7.36D-09
 IDIUse=1 WtCom= 1.00D+00 WtEn= 0.00D+00
 Coeff-Com:  0.117D-03-0.618D-03-0.469D-02 0.233D-01-0.243D-01-0.279D+00
 Coeff-Com:  0.128D+01
 Coeff:      0.117D-03-0.618D-03-0.469D-02 0.233D-01-0.243D-01-0.279D+00
 Coeff:      0.128D+01
 Gap=     0.548 Goal=   None    Shift=    0.000
 RMSDP=7.17D-07 MaxDP=1.26D-05 DE=-2.11D-08 OVMax= 1.92D-05

 Cycle   8  Pass 1  IDiag  1:
 E= -76.0391988627422     Delta-E=       -0.000000000989 Rises=F Damp=F
 DIIS: error= 6.66D-07 at cycle   8 NSaved=   8.
 NSaved= 8 IEnMin= 8 EnMin= -76.0391988627422     IErMin= 8 ErrMin= 6.66D-07
 ErrMax= 6.66D-07  0.00D+00 EMaxC= 1.00D-01 BMatC= 1.06D-11 BMatP= 4.05D-10
 IDIUse=1 WtCom= 1.00D+00 WtEn= 0.00D+00
 Coeff-Com: -0.196D-04 0.117D-03 0.931D-03-0.565D-02 0.128D-01 0.319D-01
 Coeff-Com: -0.341D+00 0.130D+01
 Coeff:     -0.196D-04 0.117D-03 0.931D-03-0.565D-02 0.128D-01 0.319D-01
 Coeff:     -0.341D+00 0.130D+01
 Gap=     0.548 Goal=   None    Shift=    0.000
 RMSDP=1.64D-07 MaxDP=2.06D-06 DE=-9.89D-10 OVMax= 3.08D-06

 Cycle   9  Pass 1  IDiag  1:
 E= -76.0391988627692     Delta-E=       -0.000000000027 Rises=F Damp=F
 DIIS: error= 8.67D-08 at cycle   9 NSaved=   9.
 NSaved= 9 IEnMin= 9 EnMin= -76.0391988627692     IErMin= 9 ErrMin= 8.67D-08
 ErrMax= 8.67D-08  0.00D+00 EMaxC= 1.00D-01 BMatC= 2.11D-13 BMatP= 1.06D-11
 IDIUse=1 WtCom= 1.00D+00 WtEn= 0.00D+00
 Coeff-Com: -0.893D-06 0.340D-05 0.145D-04 0.101D-03-0.107D-02 0.330D-02
 Coeff-Com:  0.138D-01-0.172D+00 0.116D+01
 Coeff:     -0.893D-06 0.340D-05 0.145D-04 0.101D-03-0.107D-02 0.330D-02
 Coeff:      0.138D-01-0.172D+00 0.116D+01
 Gap=     0.548 Goal=   None    Shift=    0.000
 RMSDP=2.30D-08 MaxDP=2.40D-07 DE=-2.70D-11 OVMax= 3.47D-07

 Cycle  10  Pass 1  IDiag  1:
 E= -76.0391988627697     Delta-E=       -0.000000000000 Rises=F Damp=F
 DIIS: error= 2.25D-08 at cycle  10 NSaved=  10.
 NSaved=10 IEnMin=10 EnMin= -76.0391988627697     IErMin=10 ErrMin= 2.25D-08
 ErrMax= 2.25D-08  0.00D+00 EMaxC= 1.00D-01 BMatC= 1.22D-14 BMatP= 2.11D-13
 IDIUse=1 WtCom= 1.00D+00 WtEn= 0.00D+00
 Coeff-Com:  0.906D-06-0.505D-05-0.370D-04 0.184D-03-0.205D-03-0.201D-02
 Coeff-Com:  0.105D-01-0.170D-01-0.266D+00 0.128D+01
 Coeff:      0.906D-06-0.505D-05-0.370D-04 0.184D-03-0.205D-03-0.201D-02
 Coeff:      0.105D-01-0.170D-01-0.266D+00 0.128D+01
 Gap=     0.548 Goal=   None    Shift=    0.000
 RMSDP=5.90D-09 MaxDP=6.16D-08 DE=-4.83D-13 OVMax= 1.06D-07

 SCF Done:  E(RHF) =  -76.0391988628     A.U. after   10 cycles
            NFock= 10  Conv=0.59D-08     -V/T= 2.0001
 KE= 7.603510025313D+01 PE=-1.994293723878D+02 EE= 3.791493994931D+01
 Leave Link  502 at Mon Feb 20 10:14:56 2023, MaxMem=   754974720 cpu:               2.3 elap:               0.8
 (Enter /opt/cluster/programs/g16-c.01/g16/l601.exe)
 Copying SCF densities to generalized density rwf, IOpCl= 0 IROHF=0.

 **********************************************************************

            Population analysis using the SCF Density.

 **********************************************************************

 Orbital symmetries:
       Occupied  (A') (A') (A') (A') (A")
       Virtual   (A') (A') (A') (A") (A') (A') (A') (A') (A") (A')
                 (A") (A') (A') (A') (A') (A') (A") (A') (A") (A')
                 (A') (A") (A') (A") (A') (A") (A') (A') (A') (A')
                 (A') (A") (A') (A") (A') (A')
 The electronic state is 1-A'.
 Alpha  occ. eigenvalues --  -20.57481  -1.37289  -0.72385  -0.59804  -0.51260
 Alpha virt. eigenvalues --    0.03542   0.05840   0.17278   0.19598   0.22422
 Alpha virt. eigenvalues --    0.23190   0.29491   0.34153   0.38952   0.40012
 Alpha virt. eigenvalues --    0.43185   0.54665   0.65003   0.66120   0.81440
 Alpha virt. eigenvalues --    0.95138   1.10203   1.11985   1.15081   1.29939
 Alpha virt. eigenvalues --    1.46467   1.48526   1.60136   2.01485   2.03371
 Alpha virt. eigenvalues --    2.13945   2.32779   2.51958   2.67461   2.74532
 Alpha virt. eigenvalues --    3.00684   3.67644   3.70294   3.70869   4.03008
 Alpha virt. eigenvalues --    4.37785
          Condensed to atoms (all electrons):
               1          2          3
     1  O    7.552055   0.350327   0.336207
     2  H    0.350327   0.596958  -0.039194
     3  H    0.336207  -0.039194   0.556307
 Mulliken charges:
               1
     1  O   -0.238589
     2  H    0.091909
     3  H    0.146680
 Sum of Mulliken charges =   0.00000
 Mulliken charges with hydrogens summed into heavy atoms:
               1
     1  O    0.000000
 Electronic spatial extent (au):  <R**2>=             19.2225
 Charge=              0.0000 electrons
 Dipole moment (field-independent basis, Debye):
    X=              0.0259    Y=             -2.0440    Z=              0.0000  Tot=              2.0441
 Quadrupole moment (field-independent basis, Debye-Ang):
   XX=             -4.5073   YY=             -6.1234   ZZ=             -7.5248
   XY=              0.1235   XZ=              0.0000   YZ=              0.0000
 Traceless Quadrupole moment (field-independent basis, Debye-Ang):
   XX=              1.5445   YY=             -0.0715   ZZ=             -1.4730
   XY=              0.1235   XZ=              0.0000   YZ=              0.0000
 Octapole moment (field-independent basis, Debye-Ang**2):
  XXX=              0.0737  YYY=             -1.2993  ZZZ=              0.0000  XYY=             -0.0859
  XXY=             -1.2987  XXZ=              0.0000  XZZ=              0.0311  YZZ=             -0.3195
  YYZ=              0.0000  XYZ=              0.0000
 Hexadecapole moment (field-independent basis, Debye-Ang**3):
 XXXX=             -5.9716 YYYY=             -7.1457 ZZZZ=             -6.7070 XXXY=             -0.0097
 XXXZ=              0.0000 YYYX=              0.0046 YYYZ=              0.0000 ZZZX=              0.0000
 ZZZY=              0.0000 XXYY=             -1.8476 XXZZ=             -2.3662 YYZZ=             -2.3651
 XXYZ=              0.0000 YYXZ=              0.0000 ZZXY=             -0.0325
 N-N= 9.440133322590D+00 E-N=-1.994293722770D+02  KE= 7.603510025313D+01
 Symmetry A'   KE= 7.158770275606D+01
 Symmetry A"   KE= 4.447397497069D+00
 No NMR shielding tensors so no spin-rotation constants.
 Leave Link  601 at Mon Feb 20 10:14:56 2023, MaxMem=   754974720 cpu:               0.4 elap:               0.1
 (Enter /opt/cluster/programs/g16-c.01/g16/l9999.exe)
 Unable to Open any file for archive entry.
 1\1\GINC-NODE106\SP\RHF\Aug-CC-pVDZ\H2O1\BOITTIER\20-Feb-2023\0\\#P HF
 /aug-cc-pVDZ scf(maxcycle=200)\\Gaussian input\\0,1\O,0,0.,0.11751,0.\
 H,0,0.7183372325,-0.4395112028,0.\H,0,-0.7153700578,-0.5211813812,0.\\
 Version=ES64L-G16RevC.01\State=1-A'\HF=-76.0391989\RMSD=5.899e-09\Dipo
 le=0.0121959,-0.8041328,0.\Quadrupole=1.1478423,-0.0527176,-1.0951247,
 0.0947793,0.,0.\PG=CS [SG(H2O1)]\\@
 The archive entry for this job was punched.


 KNOWLEDGE IS EXPERIMENT'S DAUGHTER.
 -- LEONARDO DA VINCI, IN "PENSIERI" CA. 1492
 Job cpu time:       0 days  0 hours  0 minutes  6.2 seconds.
 Elapsed time:       0 days  0 hours  0 minutes  2.0 seconds.
 File lengths (MBytes):  RWF=      6 Int=      0 D2E=      0 Chk=      1 Scr=      1
 Normal termination of Gaussian 16 at Mon Feb 20 10:14:56 2023.
