 Entering Gaussian System, Link 0=/opt/cluster/programs/g16-c.01/g16/g16
 Input=/scratch/boittier/jobs/tmp.7262271/gaussian_115_water_ccsdt_adz.com
 Output=/scratch/boittier/jobs/tmp.7262271/gaussian_115_water_ccsdt_adz.out
 Initial command:
 /opt/cluster/programs/g16-c.01/g16/l1.exe "/scratch/boittier/jobs/tmp.7262271/Gau-167109.inp" -scrdir="/scratch/boittier/jobs/tmp.7262271/"
 Entering Link 1 = /opt/cluster/programs/g16-c.01/g16/l1.exe PID=    167110.
  
 Copyright (c) 1988-2019, Gaussian, Inc.  All Rights Reserved.
  
 This is part of the Gaussian(R) 16 program.  It is based on
 the Gaussian(R) 09 system (copyright 2009, Gaussian, Inc.),
 the Gaussian(R) 03 system (copyright 2003, Gaussian, Inc.),
 the Gaussian(R) 98 system (copyright 1998, Gaussian, Inc.),
 the Gaussian(R) 94 system (copyright 1995, Gaussian, Inc.),
 the Gaussian 92(TM) system (copyright 1992, Gaussian, Inc.),
 the Gaussian 90(TM) system (copyright 1990, Gaussian, Inc.),
 the Gaussian 88(TM) system (copyright 1988, Gaussian, Inc.),
 the Gaussian 86(TM) system (copyright 1986, Carnegie Mellon
 University), and the Gaussian 82(TM) system (copyright 1983,
 Carnegie Mellon University). Gaussian is a federally registered
 trademark of Gaussian, Inc.
  
 This software contains proprietary and confidential information,
 including trade secrets, belonging to Gaussian, Inc.
  
 This software is provided under written license and may be
 used, copied, transmitted, or stored only in accord with that
 written license.
  
 The following legend is applicable only to US Government
 contracts under FAR:
  
                    RESTRICTED RIGHTS LEGEND
  
 Use, reproduction and disclosure by the US Government is
 subject to restrictions as set forth in subparagraphs (a)
 and (c) of the Commercial Computer Software - Restricted
 Rights clause in FAR 52.227-19.
  
 Gaussian, Inc.
 340 Quinnipiac St., Bldg. 40, Wallingford CT 06492
  
  
 ---------------------------------------------------------------
 Warning -- This program may not be used in any manner that
 competes with the business of Gaussian, Inc. or will provide
 assistance to any competitor of Gaussian, Inc.  The licensee
 of this program is prohibited from giving any competitor of
 Gaussian, Inc. access to this program.  By using this program,
 the user acknowledges that Gaussian, Inc. is engaged in the
 business of creating and licensing software in the field of
 computational chemistry and represents and warrants to the
 licensee that it is not a competitor of Gaussian, Inc. and that
 it will not use this program in any manner prohibited above.
 ---------------------------------------------------------------
  

 Cite this work as:
 Gaussian 16, Revision C.01,
 M. J. Frisch, G. W. Trucks, H. B. Schlegel, G. E. Scuseria, 
 M. A. Robb, J. R. Cheeseman, G. Scalmani, V. Barone, 
 G. A. Petersson, H. Nakatsuji, X. Li, M. Caricato, A. V. Marenich, 
 J. Bloino, B. G. Janesko, R. Gomperts, B. Mennucci, H. P. Hratchian, 
 J. V. Ortiz, A. F. Izmaylov, J. L. Sonnenberg, D. Williams-Young, 
 F. Ding, F. Lipparini, F. Egidi, J. Goings, B. Peng, A. Petrone, 
 T. Henderson, D. Ranasinghe, V. G. Zakrzewski, J. Gao, N. Rega, 
 G. Zheng, W. Liang, M. Hada, M. Ehara, K. Toyota, R. Fukuda, 
 J. Hasegawa, M. Ishida, T. Nakajima, Y. Honda, O. Kitao, H. Nakai, 
 T. Vreven, K. Throssell, J. A. Montgomery, Jr., J. E. Peralta, 
 F. Ogliaro, M. J. Bearpark, J. J. Heyd, E. N. Brothers, K. N. Kudin, 
 V. N. Staroverov, T. A. Keith, R. Kobayashi, J. Normand, 
 K. Raghavachari, A. P. Rendell, J. C. Burant, S. S. Iyengar, 
 J. Tomasi, M. Cossi, J. M. Millam, M. Klene, C. Adamo, R. Cammi, 
 J. W. Ochterski, R. L. Martin, K. Morokuma, O. Farkas, 
 J. B. Foresman, and D. J. Fox, Gaussian, Inc., Wallingford CT, 2019.
 
 ******************************************
 Gaussian 16:  ES64L-G16RevC.01  3-Jul-2019
                 8-Feb-2023 
 ******************************************
 %nproc=4
 Will use up to    4 processors via shared memory.
 %mem=5760MB
 %chk=gaussian_115_water_ccsdt_adz.chk
 ----------------------------------------
 #P CCSD(T)/aug-cc-pVDZ scf(maxcycle=200)
 ----------------------------------------
 1/38=1,172=1/1;
 2/12=2,17=6,18=5,40=1/2;
 3/5=16,7=10,11=9,25=1,30=1/1,2,3;
 4//1;
 5/5=2,7=200,38=5/2;
 8/6=4,9=120000,10=1/1,4;
 9/5=7,14=2/13;
 6/7=2,8=2,9=2,10=2/1;
 99/5=1,9=1/99;
 Leave Link    1 at Wed Feb  8 14:49:47 2023, MaxMem=   754974720 cpu:               0.1 elap:               0.0
 (Enter /opt/cluster/programs/g16-c.01/g16/l101.exe)
 --------------
 Gaussian input
 --------------
 Symbolic Z-matrix:
 Charge =  0 Multiplicity = 1
 O                     0.        0.11751   0. 
 H                     0.75785  -0.47015   0. 
 H                    -0.89288  -0.35243   0. 
 
 ITRead=  0  0  0
 MicOpt= -1 -1 -1
 NAtoms=      3 NQM=        3 NQMF=       0 NMMI=      0 NMMIF=      0
                NMic=       0 NMicF=      0.
                    Isotopes and Nuclear Properties:
 (Nuclear quadrupole moments (NQMom) in fm**2, nuclear magnetic moments (NMagM)
  in nuclear magnetons)

  Atom         1           2           3
 IAtWgt=          16           1           1
 AtmWgt=  15.9949146   1.0078250   1.0078250
 NucSpn=           0           1           1
 AtZEff=  -0.0000000  -0.0000000  -0.0000000
 NQMom=    0.0000000   0.0000000   0.0000000
 NMagM=    0.0000000   2.7928460   2.7928460
 AtZNuc=   8.0000000   1.0000000   1.0000000
 Leave Link  101 at Wed Feb  8 14:49:47 2023, MaxMem=   754974720 cpu:               1.0 elap:               0.3
 (Enter /opt/cluster/programs/g16-c.01/g16/l202.exe)
                          Input orientation:                          
 ---------------------------------------------------------------------
 Center     Atomic      Atomic             Coordinates (Angstroms)
 Number     Number       Type             X           Y           Z
 ---------------------------------------------------------------------
      1          8           0        0.000000    0.117510    0.000000
      2          1           0        0.757850   -0.470150    0.000000
      3          1           0       -0.892880   -0.352433    0.000000
 ---------------------------------------------------------------------
                    Distance matrix (angstroms):
                    1          2          3
     1  O    0.000000
     2  H    0.959000   0.000000
     3  H    1.009000   1.654921   0.000000
 Stoichiometry    H2O
 Framework group  CS[SG(H2O)]
 Deg. of freedom     3
 Full point group                 CS      NOp   2
 Largest Abelian subgroup         CS      NOp   2
 Largest concise Abelian subgroup C1      NOp   1
                         Standard orientation:                         
 ---------------------------------------------------------------------
 Center     Atomic      Atomic             Coordinates (Angstroms)
 Number     Number       Type             X           Y           Z
 ---------------------------------------------------------------------
      1          8           0        0.000000    0.106619    0.000000
      2          1           0        0.826173   -0.380330    0.000000
      3          1           0       -0.826173   -0.472621    0.000000
 ---------------------------------------------------------------------
 Rotational constants (GHZ):         998.3375484         365.5288933         267.5637497
 Leave Link  202 at Wed Feb  8 14:49:47 2023, MaxMem=   754974720 cpu:               0.1 elap:               0.0
 (Enter /opt/cluster/programs/g16-c.01/g16/l301.exe)
 Standard basis: Aug-CC-pVDZ (5D, 7F)
 Ernie: Thresh=  0.10000D-02 Tol=  0.10000D-05 Strict=F.
 Ernie:  2 primitive shells out of 39 were deleted.
 There are    32 symmetry adapted cartesian basis functions of A'  symmetry.
 There are    11 symmetry adapted cartesian basis functions of A"  symmetry.
 There are    30 symmetry adapted basis functions of A'  symmetry.
 There are    11 symmetry adapted basis functions of A"  symmetry.
    41 basis functions,    65 primitive gaussians,    43 cartesian basis functions
     5 alpha electrons        5 beta electrons
       nuclear repulsion energy         8.9298249250 Hartrees.
 IExCor=    0 DFT=F Ex=HF Corr=None ExCW=0 ScaHFX=  1.000000
 ScaDFX=  1.000000  1.000000  1.000000  1.000000 ScalE2=  1.000000  1.000000
 IRadAn=      5 IRanWt=     -1 IRanGd=            0 ICorTp=0 IEmpDi=  4
 NAtoms=    3 NActive=    3 NUniq=    3 SFac= 1.00D+00 NAtFMM=   60 NAOKFM=F Big=F
 Integral buffers will be    131072 words long.
 Raffenetti 1 integral format.
 Two-electron integral symmetry is turned on.
 Leave Link  301 at Wed Feb  8 14:49:47 2023, MaxMem=   754974720 cpu:               0.1 elap:               0.0
 (Enter /opt/cluster/programs/g16-c.01/g16/l302.exe)
 NPDir=0 NMtPBC=     1 NCelOv=     1 NCel=       1 NClECP=     1 NCelD=      1
         NCelK=      1 NCelE2=     1 NClLst=     1 CellRange=     0.0.
 One-electron integrals computed using PRISM.
 One-electron integral symmetry used in STVInt
 NBasis=    41 RedAO= T EigKep=  3.03D-03  NBF=    30    11
 NBsUse=    41 1.00D-06 EigRej= -1.00D+00 NBFU=    30    11
 Leave Link  302 at Wed Feb  8 14:49:47 2023, MaxMem=   754974720 cpu:               1.0 elap:               0.3
 (Enter /opt/cluster/programs/g16-c.01/g16/l303.exe)
 DipDrv:  MaxL=1.
 Leave Link  303 at Wed Feb  8 14:49:48 2023, MaxMem=   754974720 cpu:               0.4 elap:               0.2
 (Enter /opt/cluster/programs/g16-c.01/g16/l401.exe)
 ExpMin= 2.97D-02 ExpMax= 1.17D+04 ExpMxC= 4.01D+02 IAcc=3 IRadAn=         5 AccDes= 0.00D+00
 Harris functional with IExCor=  205 and IRadAn=       5 diagonalized for initial guess.
 HarFok:  IExCor=  205 AccDes= 0.00D+00 IRadAn=         5 IDoV= 1 UseB2=F ITyADJ=14
 ICtDFT=  3500011 ScaDFX=  1.000000  1.000000  1.000000  1.000000
 FoFCou: FMM=F IPFlag=           0 FMFlag=      100000 FMFlg1=           0
         NFxFlg=           0 DoJE=T BraDBF=F KetDBF=T FulRan=T
         wScrn=  0.000000 ICntrl=       500 IOpCl=  0 I1Cent=   200000004 NGrid=           0
         NMat0=    1 NMatS0=      1 NMatT0=    0 NMatD0=    1 NMtDS0=    0 NMtDT0=    0
 Petite list used in FoFCou.
 Harris En= -76.1213004455424    
 JPrj=0 DoOrth=F DoCkMO=F.
 Initial guess orbital symmetries:
       Occupied  (A') (A') (A') (A') (A")
       Virtual   (A') (A') (A') (A") (A') (A') (A') (A') (A") (A')
                 (A") (A') (A') (A') (A') (A') (A") (A') (A") (A')
                 (A") (A') (A') (A') (A") (A") (A') (A') (A') (A')
                 (A') (A") (A') (A") (A') (A')
 The electronic state of the initial guess is 1-A'.
 Leave Link  401 at Wed Feb  8 14:49:48 2023, MaxMem=   754974720 cpu:               1.5 elap:               0.5
 (Enter /opt/cluster/programs/g16-c.01/g16/l502.exe)
 Keep R1 ints in memory in symmetry-blocked form, NReq=1210668.
 FoFCou: FMM=F IPFlag=           0 FMFlag=           0 FMFlg1=           0
         NFxFlg=           0 DoJE=F BraDBF=F KetDBF=F FulRan=T
         wScrn=  0.000000 ICntrl=       600 IOpCl=  0 I1Cent=           0 NGrid=           0
         NMat0=    1 NMatS0=    861 NMatT0=    0 NMatD0=    1 NMtDS0=    0 NMtDT0=    0
 Petite list used in FoFCou.
 Closed shell SCF:
 Using DIIS extrapolation, IDIIS=  1040.
 NGot=   754974720 LenX=   754771907 LenY=   754769617
 Requested convergence on RMS density matrix=1.00D-08 within 200 cycles.
 Requested convergence on MAX density matrix=1.00D-06.
 Requested convergence on             energy=1.00D-06.
 No special actions if energy rises.

 Cycle   1  Pass 1  IDiag  1:
 E= -75.9598698143109    
 DIIS: error= 5.04D-02 at cycle   1 NSaved=   1.
 NSaved= 1 IEnMin= 1 EnMin= -75.9598698143109     IErMin= 1 ErrMin= 5.04D-02
 ErrMax= 5.04D-02  0.00D+00 EMaxC= 1.00D-01 BMatC= 1.14D-01 BMatP= 1.14D-01
 IDIUse=3 WtCom= 4.96D-01 WtEn= 5.04D-01
 Coeff-Com:  0.100D+01
 Coeff-En:   0.100D+01
 Coeff:      0.100D+01
 Gap=     0.458 Goal=   None    Shift=    0.000
 GapD=    0.458 DampG=2.000 DampE=0.500 DampFc=1.0000 IDamp=-1.
 RMSDP=6.19D-03 MaxDP=1.16D-01              OVMax= 1.19D-01

 Cycle   2  Pass 1  IDiag  1:
 E= -76.0024837223753     Delta-E=       -0.042613908064 Rises=F Damp=F
 DIIS: error= 4.04D-02 at cycle   2 NSaved=   2.
 NSaved= 2 IEnMin= 2 EnMin= -76.0024837223753     IErMin= 2 ErrMin= 4.04D-02
 ErrMax= 4.04D-02  0.00D+00 EMaxC= 1.00D-01 BMatC= 4.58D-02 BMatP= 1.14D-01
 IDIUse=3 WtCom= 5.96D-01 WtEn= 4.04D-01
 Coeff-Com:  0.377D+00 0.623D+00
 Coeff-En:   0.224D+00 0.776D+00
 Coeff:      0.315D+00 0.685D+00
 Gap=     0.556 Goal=   None    Shift=    0.000
 RMSDP=2.93D-03 MaxDP=5.45D-02 DE=-4.26D-02 OVMax= 5.93D-02

 Cycle   3  Pass 1  IDiag  1:
 E= -76.0342047136390     Delta-E=       -0.031720991264 Rises=F Damp=F
 DIIS: error= 4.60D-03 at cycle   3 NSaved=   3.
 NSaved= 3 IEnMin= 3 EnMin= -76.0342047136390     IErMin= 3 ErrMin= 4.60D-03
 ErrMax= 4.60D-03  0.00D+00 EMaxC= 1.00D-01 BMatC= 1.13D-03 BMatP= 4.58D-02
 IDIUse=3 WtCom= 9.54D-01 WtEn= 4.60D-02
 Coeff-Com: -0.377D-01 0.915D-01 0.946D+00
 Coeff-En:   0.000D+00 0.000D+00 0.100D+01
 Coeff:     -0.360D-01 0.873D-01 0.949D+00
 Gap=     0.538 Goal=   None    Shift=    0.000
 RMSDP=4.69D-04 MaxDP=8.08D-03 DE=-3.17D-02 OVMax= 9.29D-03

 Cycle   4  Pass 1  IDiag  1:
 E= -76.0350762895407     Delta-E=       -0.000871575902 Rises=F Damp=F
 DIIS: error= 6.67D-04 at cycle   4 NSaved=   4.
 NSaved= 4 IEnMin= 4 EnMin= -76.0350762895407     IErMin= 4 ErrMin= 6.67D-04
 ErrMax= 6.67D-04  0.00D+00 EMaxC= 1.00D-01 BMatC= 8.32D-06 BMatP= 1.13D-03
 IDIUse=3 WtCom= 9.93D-01 WtEn= 6.67D-03
 Coeff-Com:  0.851D-02-0.429D-01-0.326D+00 0.136D+01
 Coeff-En:   0.000D+00 0.000D+00 0.000D+00 0.100D+01
 Coeff:      0.845D-02-0.426D-01-0.324D+00 0.136D+01
 Gap=     0.539 Goal=   None    Shift=    0.000
 RMSDP=1.22D-04 MaxDP=1.23D-03 DE=-8.72D-04 OVMax= 2.49D-03

 Cycle   5  Pass 1  IDiag  1:
 E= -76.0350974967455     Delta-E=       -0.000021207205 Rises=F Damp=F
 DIIS: error= 1.87D-04 at cycle   5 NSaved=   5.
 NSaved= 5 IEnMin= 5 EnMin= -76.0350974967455     IErMin= 5 ErrMin= 1.87D-04
 ErrMax= 1.87D-04  0.00D+00 EMaxC= 1.00D-01 BMatC= 3.96D-07 BMatP= 8.32D-06
 IDIUse=3 WtCom= 9.98D-01 WtEn= 1.87D-03
 Coeff-Com:  0.269D-03 0.244D-02 0.146D-01-0.263D+00 0.125D+01
 Coeff-En:   0.000D+00 0.000D+00 0.000D+00 0.000D+00 0.100D+01
 Coeff:      0.269D-03 0.244D-02 0.145D-01-0.263D+00 0.125D+01
 Gap=     0.540 Goal=   None    Shift=    0.000
 RMSDP=3.09D-05 MaxDP=4.18D-04 DE=-2.12D-05 OVMax= 6.94D-04

 Cycle   6  Pass 1  IDiag  1:
 E= -76.0350987622385     Delta-E=       -0.000001265493 Rises=F Damp=F
 DIIS: error= 3.81D-05 at cycle   6 NSaved=   6.
 NSaved= 6 IEnMin= 6 EnMin= -76.0350987622385     IErMin= 6 ErrMin= 3.81D-05
 ErrMax= 3.81D-05  0.00D+00 EMaxC= 1.00D-01 BMatC= 1.69D-08 BMatP= 3.96D-07
 IDIUse=1 WtCom= 1.00D+00 WtEn= 0.00D+00
 Coeff-Com: -0.423D-03 0.153D-02 0.126D-01-0.198D-01-0.246D+00 0.125D+01
 Coeff:     -0.423D-03 0.153D-02 0.126D-01-0.198D-01-0.246D+00 0.125D+01
 Gap=     0.540 Goal=   None    Shift=    0.000
 RMSDP=5.88D-06 MaxDP=1.06D-04 DE=-1.27D-06 OVMax= 1.61D-04

 Cycle   7  Pass 1  IDiag  1:
 E= -76.0350988182475     Delta-E=       -0.000000056009 Rises=F Damp=F
 DIIS: error= 7.84D-06 at cycle   7 NSaved=   7.
 NSaved= 7 IEnMin= 7 EnMin= -76.0350988182475     IErMin= 7 ErrMin= 7.84D-06
 ErrMax= 7.84D-06  0.00D+00 EMaxC= 1.00D-01 BMatC= 8.44D-10 BMatP= 1.69D-08
 IDIUse=1 WtCom= 1.00D+00 WtEn= 0.00D+00
 Coeff-Com:  0.158D-03-0.739D-03-0.607D-02 0.230D-01 0.336D-01-0.467D+00
 Coeff-Com:  0.142D+01
 Coeff:      0.158D-03-0.739D-03-0.607D-02 0.230D-01 0.336D-01-0.467D+00
 Coeff:      0.142D+01
 Gap=     0.540 Goal=   None    Shift=    0.000
 RMSDP=1.18D-06 MaxDP=2.41D-05 DE=-5.60D-08 OVMax= 3.52D-05

 Cycle   8  Pass 1  IDiag  1:
 E= -76.0350988206351     Delta-E=       -0.000000002388 Rises=F Damp=F
 DIIS: error= 1.09D-06 at cycle   8 NSaved=   8.
 NSaved= 8 IEnMin= 8 EnMin= -76.0350988206351     IErMin= 8 ErrMin= 1.09D-06
 ErrMax= 1.09D-06  0.00D+00 EMaxC= 1.00D-01 BMatC= 2.35D-11 BMatP= 8.44D-10
 IDIUse=1 WtCom= 1.00D+00 WtEn= 0.00D+00
 Coeff-Com: -0.229D-04 0.123D-03 0.108D-02-0.543D-02 0.158D-02 0.748D-01
 Coeff-Com: -0.374D+00 0.130D+01
 Coeff:     -0.229D-04 0.123D-03 0.108D-02-0.543D-02 0.158D-02 0.748D-01
 Coeff:     -0.374D+00 0.130D+01
 Gap=     0.540 Goal=   None    Shift=    0.000
 RMSDP=2.32D-07 MaxDP=3.23D-06 DE=-2.39D-09 OVMax= 4.61D-06

 Cycle   9  Pass 1  IDiag  1:
 E= -76.0350988206922     Delta-E=       -0.000000000057 Rises=F Damp=F
 DIIS: error= 1.35D-07 at cycle   9 NSaved=   9.
 NSaved= 9 IEnMin= 9 EnMin= -76.0350988206922     IErMin= 9 ErrMin= 1.35D-07
 ErrMax= 1.35D-07  0.00D+00 EMaxC= 1.00D-01 BMatC= 4.52D-13 BMatP= 2.35D-11
 IDIUse=1 WtCom= 1.00D+00 WtEn= 0.00D+00
 Coeff-Com: -0.411D-05 0.190D-04 0.149D-03-0.482D-03-0.106D-02 0.104D-01
 Coeff-Com: -0.218D-01-0.774D-01 0.109D+01
 Coeff:     -0.411D-05 0.190D-04 0.149D-03-0.482D-03-0.106D-02 0.104D-01
 Coeff:     -0.218D-01-0.774D-01 0.109D+01
 Gap=     0.540 Goal=   None    Shift=    0.000
 RMSDP=3.14D-08 MaxDP=3.21D-07 DE=-5.71D-11 OVMax= 5.10D-07

 Cycle  10  Pass 1  IDiag  1:
 E= -76.0350988206932     Delta-E=       -0.000000000001 Rises=F Damp=F
 DIIS: error= 3.44D-08 at cycle  10 NSaved=  10.
 NSaved=10 IEnMin=10 EnMin= -76.0350988206932     IErMin=10 ErrMin= 3.44D-08
 ErrMax= 3.44D-08  0.00D+00 EMaxC= 1.00D-01 BMatC= 3.04D-14 BMatP= 4.52D-13
 IDIUse=1 WtCom= 1.00D+00 WtEn= 0.00D+00
 Coeff-Com:  0.175D-05-0.872D-05-0.725D-04 0.305D-03 0.260D-03-0.545D-02
 Coeff-Com:  0.205D-01-0.373D-01-0.289D+00 0.131D+01
 Coeff:      0.175D-05-0.872D-05-0.725D-04 0.305D-03 0.260D-03-0.545D-02
 Coeff:      0.205D-01-0.373D-01-0.289D+00 0.131D+01
 Gap=     0.540 Goal=   None    Shift=    0.000
 RMSDP=9.13D-09 MaxDP=9.13D-08 DE=-1.02D-12 OVMax= 1.68D-07

 SCF Done:  E(RHF) =  -76.0350988207     A.U. after   10 cycles
            NFock= 10  Conv=0.91D-08     -V/T= 2.0029
 KE= 7.581583824876D+01 PE=-1.983429440103D+02 EE= 3.756218201589D+01
 Leave Link  502 at Wed Feb  8 14:49:51 2023, MaxMem=   754974720 cpu:               4.9 elap:               2.4
 (Enter /opt/cluster/programs/g16-c.01/g16/l801.exe)
 Windowed orbitals will be sorted by symmetry type.
 ExpMin= 2.97D-02 ExpMax= 1.17D+04 ExpMxC= 4.01D+02 IAcc=3 IRadAn=         5 AccDes= 0.00D+00
 HarFok:  IExCor=  205 AccDes= 0.00D+00 IRadAn=         5 IDoV=-2 UseB2=F ITyADJ=14
 ICtDFT= 12500011 ScaDFX=  1.000000  1.000000  1.000000  1.000000
 Largest valence mixing into a core orbital is  6.17D-05
 Largest core mixing into a valence orbital is  1.82D-05
 Range of M.O.s used for correlation:     2    41
 NBasis=    41 NAE=     5 NBE=     5 NFC=     1 NFV=     0
 NROrb=     40 NOA=     4 NOB=     4 NVA=    36 NVB=    36
 Leave Link  801 at Wed Feb  8 14:49:54 2023, MaxMem=   754974720 cpu:               0.5 elap:               0.2
 (Enter /opt/cluster/programs/g16-c.01/g16/l804.exe)
 Closed-shell transformation, MDV=   754974720 ITran=4 ISComp=2.
 Unit  1 TFree=         57024 TCopy=        242858.
 Semi-Direct transformation.
 ModeAB=           2 MOrb=             4 LenV=     754769661
 LASXX=        60334 LTotXX=       60334 LenRXX=       60334
 LTotAB=       65632 MaxLAS=      151360 LenRXY=      151360
 NonZer=      159520 LenScr=      785920 LnRSAI=           0
 LnScr1=           0 LExtra=           0 Total=       997614
 MaxDsk=          -1 SrtSym=           F ITran=            4
 DoSDTr:  NPSUse=  4
 JobTyp=0 Pass  1:  I=   1 to   4.
 (rs|ai) integrals will be sorted in core.
 Complete sort for first half transformation.
 First half transformation complete.
 Complete sort for second half transformation.
 Second half transformation complete.
 Spin components of T(2) and E(2):
     alpha-alpha T2 =       0.7904591523D-02 E2=     -0.2813102458D-01
     alpha-beta  T2 =       0.4488247062D-01 E2=     -0.1649968711D+00
     beta-beta   T2 =       0.7904591523D-02 E2=     -0.2813102458D-01
 ANorm=    0.1029898856D+01
 E2 =    -0.2212589203D+00 EUMP2 =    -0.76256357740970D+02
 Leave Link  804 at Wed Feb  8 14:49:57 2023, MaxMem=   754974720 cpu:               4.3 elap:               2.2
 (Enter /opt/cluster/programs/g16-c.01/g16/l913.exe)
 CIDS:  MDV=   754974720.
 Frozen-core window:  NFC=   1 NFV=   0.
 IFCWin=0 IBDFC=1 NFBD=     0     0 NFCmp=     0     0 NFFFC=     0     0
 Using DD3R+UMP44R for 1st iteration.
 Using DD4RQ for 2nd and later iterations.
 Keep R2 and R3 ints in memory in symmetry-blocked form, NReq=1234037.
 FoFCou: FMM=F IPFlag=           0 FMFlag=           0 FMFlg1=           0
         NFxFlg=           0 DoJE=F BraDBF=F KetDBF=F FulRan=T
         wScrn=  0.000000 ICntrl=       600 IOpCl=  0 I1Cent=           0 NGrid=           0
         NMat0=    1 NMatS0=    861 NMatT0=    0 NMatD0=    1 NMtDS0=    0 NMtDT0=    0
 Petite list used in FoFCou.
 CIDS: In Core Option IDoMem=           1.
 CCSD(T)
 =======
 Iterations=  50 Convergence= 0.100D-06
 Produce multiple copies of IABC intergrals
 Iteration Nr.   1
 **********************
 DD1Dir will call FoFMem   1 times, MxPair=        20
 NAB=    10 NAA=     0 NBB=     0.
 MP4(R+Q)=  0.25306376D-02
 Maximum subspace dimension=  5
 A-vector RMS=  5.5827941D-03 Max=  1.7834232D-02 conv= 1.00D-05.
 RLE energy=       -0.2230675811
 E3=       -0.44195308D-02        EUMP3=      -0.76260777272D+02
 E4(DQ)=   -0.16450738D-02        UMP4(DQ)=   -0.76262422346D+02
 E4(SDQ)=  -0.34638853D-02        UMP4(SDQ)=  -0.76264241157D+02
 VARIATIONAL ENERGIES WITH THE FIRST-ORDER WAVEFUNCTION:
 DE(Corr)= -0.22305296     E(Corr)=     -76.258151778    
 NORM(A)=   0.10308865D+01
 Iteration Nr.   2
 **********************
 DD1Dir will call FoFMem   1 times, MxPair=        20
 NAB=    10 NAA=     0 NBB=     0.
 A-vector RMS=  6.7682270D-04 Max=  3.1878624D-03 conv= 1.00D-05.
 RLE energy=       -0.2284809641
 DE(Corr)= -0.22783983     E(CORR)=     -76.262938651     Delta=-4.79D-03
 NORM(A)=   0.10332439D+01
 Iteration Nr.   3
 **********************
 DD1Dir will call FoFMem   1 times, MxPair=        20
 NAB=    10 NAA=     0 NBB=     0.
 A-vector RMS=  7.8870897D-04 Max=  3.0428466D-03 conv= 1.00D-05.
 RLE energy=       -0.2288854013
 DE(Corr)= -0.22843074     E(CORR)=     -76.263529558     Delta=-5.91D-04
 NORM(A)=   0.10338149D+01
 Iteration Nr.   4
 **********************
 DD1Dir will call FoFMem   1 times, MxPair=        20
 NAB=    10 NAA=     0 NBB=     0.
 A-vector RMS=  1.0042524D-04 Max=  3.9232641D-04 conv= 1.00D-05.
 RLE energy=       -0.2289261146
 DE(Corr)= -0.22889320     E(CORR)=     -76.263992022     Delta=-4.62D-04
 NORM(A)=   0.10339400D+01
 Iteration Nr.   5
 **********************
 DD1Dir will call FoFMem   1 times, MxPair=        20
 NAB=    10 NAA=     0 NBB=     0.
 A-vector RMS=  4.3750569D-05 Max=  1.6730057D-04 conv= 1.00D-05.
 RLE energy=       -0.2289328836
 DE(Corr)= -0.22892864     E(CORR)=     -76.264027457     Delta=-3.54D-05
 NORM(A)=   0.10339609D+01
 Iteration Nr.   6
 **********************
 DD1Dir will call FoFMem   1 times, MxPair=        20
 NAB=    10 NAA=     0 NBB=     0.
 A-vector RMS=  1.1984391D-05 Max=  4.0025626D-05 conv= 1.00D-05.
 RLE energy=       -0.2289297405
 DE(Corr)= -0.22893121     E(CORR)=     -76.264030028     Delta=-2.57D-06
 NORM(A)=   0.10339631D+01
 Iteration Nr.   7
 **********************
 DD1Dir will call FoFMem   1 times, MxPair=        20
 NAB=    10 NAA=     0 NBB=     0.
 A-vector RMS=  5.3371211D-06 Max=  2.1030769D-05 conv= 1.00D-05.
 RLE energy=       -0.2289304234
 DE(Corr)= -0.22893125     E(CORR)=     -76.264030067     Delta=-3.95D-08
 NORM(A)=   0.10339638D+01
 Iteration Nr.   8
 **********************
 DD1Dir will call FoFMem   1 times, MxPair=        20
 NAB=    10 NAA=     0 NBB=     0.
 A-vector RMS=  1.8073097D-06 Max=  6.4874927D-06 conv= 1.00D-05.
 RLE energy=       -0.2289307038
 DE(Corr)= -0.22893083     E(CORR)=     -76.264029652     Delta= 4.15D-07
 NORM(A)=   0.10339642D+01
 Iteration Nr.   9
 **********************
 DD1Dir will call FoFMem   1 times, MxPair=        20
 NAB=    10 NAA=     0 NBB=     0.
 A-vector RMS=  6.1815883D-07 Max=  2.4330650D-06 conv= 1.00D-05.
 RLE energy=       -0.2289310182
 DE(Corr)= -0.22893102     E(CORR)=     -76.264029841     Delta=-1.89D-07
 NORM(A)=   0.10339645D+01
 Iteration Nr.  10
 **********************
 DD1Dir will call FoFMem   1 times, MxPair=        20
 NAB=    10 NAA=     0 NBB=     0.
 A-vector RMS=  2.7117914D-07 Max=  9.6742034D-07 conv= 1.00D-05.
 RLE energy=       -0.2289310597
 DE(Corr)= -0.22893103     E(CORR)=     -76.264029850     Delta=-9.28D-09
 NORM(A)=   0.10339645D+01
 CI/CC converged in   10 iterations to DelEn=-9.28D-09 Conv= 1.00D-07 ErrA1= 2.71D-07 Conv= 1.00D-05
 Wavefunction amplitudes converged. E(Corr)=     -76.264029850    
 Largest amplitude= 3.46D-02
 IPart=  3 IA=    3   10.95% done.
 IPart=  4 IA=    5   21.27% done.
 IPart=  3 IA=    7   30.95% done.
 IPart=  4 IA=    9   40.00% done.
 IPart=  3 IA=   12   52.38% done.
 IPart=  3 IA=   15   63.33% done.
 IPart=  1 IA=   18   72.86% done.
 IPart=  1 IA=   21   80.95% done.
 IPart=  4 IA=   26   91.27% done.
 Time for triples=        0.44 seconds.
 T4(CCSD)= -0.57994241D-02
 T5(CCSD)=  0.42657593D-03
 CCSD(T)= -0.76269402698D+02
 Discarding MO integrals.
 Leave Link  913 at Wed Feb  8 14:50:00 2023, MaxMem=   754974720 cpu:               2.0 elap:               0.6
 (Enter /opt/cluster/programs/g16-c.01/g16/l601.exe)
 Copying SCF densities to generalized density rwf, IOpCl= 0 IROHF=0.

 **********************************************************************

            Population analysis using the SCF Density.

 **********************************************************************

 Orbital symmetries:
       Occupied  (A') (A') (A') (A') (A")
       Virtual   (A') (A') (A') (A") (A') (A') (A') (A') (A") (A')
                 (A") (A') (A') (A') (A') (A') (A") (A') (A") (A')
                 (A') (A") (A') (A') (A") (A") (A') (A') (A') (A')
                 (A') (A") (A') (A") (A') (A')
 The electronic state is 1-A'.
 Alpha  occ. eigenvalues --  -20.57647  -1.33725  -0.72221  -0.56127  -0.50416
 Alpha virt. eigenvalues --    0.03560   0.05690   0.17571   0.19695   0.21720
 Alpha virt. eigenvalues --    0.22891   0.28965   0.31468   0.37806   0.42048
 Alpha virt. eigenvalues --    0.44550   0.52474   0.63920   0.65670   0.82709
 Alpha virt. eigenvalues --    0.88789   1.09147   1.09911   1.14694   1.36164
 Alpha virt. eigenvalues --    1.46543   1.48624   1.57243   1.96519   2.02578
 Alpha virt. eigenvalues --    2.06439   2.39807   2.42556   2.58085   2.73091
 Alpha virt. eigenvalues --    2.87809   3.66250   3.67272   3.70194   4.06565
 Alpha virt. eigenvalues --    4.22915
          Condensed to atoms (all electrons):
               1          2          3
     1  O    7.720666   0.339372   0.323061
     2  H    0.339372   0.534416  -0.036294
     3  H    0.323061  -0.036294   0.492642
 Mulliken charges:
               1
     1  O   -0.383099
     2  H    0.162507
     3  H    0.220592
 Sum of Mulliken charges =   0.00000
 Mulliken charges with hydrogens summed into heavy atoms:
               1
     1  O    0.000000
 Electronic spatial extent (au):  <R**2>=             19.9122
 Charge=             -0.0000 electrons
 Dipole moment (field-independent basis, Debye):
    X=              0.0161    Y=             -1.8467    Z=              0.0000  Tot=              1.8467
 Quadrupole moment (field-independent basis, Debye-Ang):
   XX=             -3.7676   YY=             -6.5794   ZZ=             -7.6742
   XY=              0.1828   XZ=              0.0000   YZ=              0.0000
 Traceless Quadrupole moment (field-independent basis, Debye-Ang):
   XX=              2.2395   YY=             -0.5724   ZZ=             -1.6671
   XY=              0.1828   XZ=              0.0000   YZ=              0.0000
 Octapole moment (field-independent basis, Debye-Ang**2):
  XXX=              0.0568  YYY=             -0.9965  ZZZ=              0.0000  XYY=             -0.1124
  XXY=             -1.4746  XXZ=              0.0000  XZZ=              0.0305  YZZ=             -0.2524
  YYZ=              0.0000  XYZ=              0.0000
 Hexadecapole moment (field-independent basis, Debye-Ang**3):
 XXXX=             -5.7928 YYYY=             -7.5201 ZZZZ=             -6.9874 XXXY=              0.0447
 XXXZ=              0.0000 YYYX=             -0.0059 YYYZ=              0.0000 ZZZX=              0.0000
 ZZZY=              0.0000 XXYY=             -2.0322 XXZZ=             -2.5907 YYZZ=             -2.4561
 XXYZ=              0.0000 YYXZ=              0.0000 ZZXY=             -0.0385
 N-N= 8.929824924967D+00 E-N=-1.983429436815D+02  KE= 7.581583824876D+01
 Symmetry A'   KE= 7.138045522437D+01
 Symmetry A"   KE= 4.435383024391D+00
 Leave Link  601 at Wed Feb  8 14:50:00 2023, MaxMem=   754974720 cpu:               0.5 elap:               0.2
 (Enter /opt/cluster/programs/g16-c.01/g16/l9999.exe)
 Unable to Open any file for archive entry.
 1\1\GINC-NODE71\SP\RCCSD(T)-FC\Aug-CC-pVDZ\H2O1\BOITTIER\08-Feb-2023\0
 \\#P CCSD(T)/aug-cc-pVDZ scf(maxcycle=200)\\Gaussian input\\0,1\O,0,0.
 ,0.11751,0.\H,0,0.7578497316,-0.4701504329,0.\H,0,-0.8928797131,-0.352
 43342,0.\\Version=ES64L-G16RevC.01\State=1-A'\HF=-76.0350988\MP2=-76.2
 563577\MP3=-76.2607773\MP4D=-76.264953\MP4DQ=-76.2624223\MP4SDQ=-76.26
 42412\CCSD=-76.2640298\CCSD(T)=-76.2694027\RMSD=9.131e-09\PG=CS [SG(H2
 O1)]\\@
 The archive entry for this job was punched.


 DEPRESSION IS WAITING FOR YOUR SHIP TO COME IN,
 AND FINDING OUT IT'S THE TITANIC.
 Job cpu time:       0 days  0 hours  0 minutes 16.5 seconds.
 Elapsed time:       0 days  0 hours  0 minutes  7.3 seconds.
 File lengths (MBytes):  RWF=     15 Int=      0 D2E=      0 Chk=      1 Scr=      1
 Normal termination of Gaussian 16 at Wed Feb  8 14:50:00 2023.
