 Entering Gaussian System, Link 0=/opt/cluster/programs/g16-c.01/g16/g16
 Input=/scratch/boittier/jobs/tmp.7311932/gaussian_104_water_hf_adz2.com
 Output=/scratch/boittier/jobs/tmp.7311932/gaussian_104_water_hf_adz2.out
 Initial command:
 /opt/cluster/programs/g16-c.01/g16/l1.exe "/scratch/boittier/jobs/tmp.7311932/Gau-181645.inp" -scrdir="/scratch/boittier/jobs/tmp.7311932/"
 Entering Link 1 = /opt/cluster/programs/g16-c.01/g16/l1.exe PID=    181659.
  
 Copyright (c) 1988-2019, Gaussian, Inc.  All Rights Reserved.
  
 This is part of the Gaussian(R) 16 program.  It is based on
 the Gaussian(R) 09 system (copyright 2009, Gaussian, Inc.),
 the Gaussian(R) 03 system (copyright 2003, Gaussian, Inc.),
 the Gaussian(R) 98 system (copyright 1998, Gaussian, Inc.),
 the Gaussian(R) 94 system (copyright 1995, Gaussian, Inc.),
 the Gaussian 92(TM) system (copyright 1992, Gaussian, Inc.),
 the Gaussian 90(TM) system (copyright 1990, Gaussian, Inc.),
 the Gaussian 88(TM) system (copyright 1988, Gaussian, Inc.),
 the Gaussian 86(TM) system (copyright 1986, Carnegie Mellon
 University), and the Gaussian 82(TM) system (copyright 1983,
 Carnegie Mellon University). Gaussian is a federally registered
 trademark of Gaussian, Inc.
  
 This software contains proprietary and confidential information,
 including trade secrets, belonging to Gaussian, Inc.
  
 This software is provided under written license and may be
 used, copied, transmitted, or stored only in accord with that
 written license.
  
 The following legend is applicable only to US Government
 contracts under FAR:
  
                    RESTRICTED RIGHTS LEGEND
  
 Use, reproduction and disclosure by the US Government is
 subject to restrictions as set forth in subparagraphs (a)
 and (c) of the Commercial Computer Software - Restricted
 Rights clause in FAR 52.227-19.
  
 Gaussian, Inc.
 340 Quinnipiac St., Bldg. 40, Wallingford CT 06492
  
  
 ---------------------------------------------------------------
 Warning -- This program may not be used in any manner that
 competes with the business of Gaussian, Inc. or will provide
 assistance to any competitor of Gaussian, Inc.  The licensee
 of this program is prohibited from giving any competitor of
 Gaussian, Inc. access to this program.  By using this program,
 the user acknowledges that Gaussian, Inc. is engaged in the
 business of creating and licensing software in the field of
 computational chemistry and represents and warrants to the
 licensee that it is not a competitor of Gaussian, Inc. and that
 it will not use this program in any manner prohibited above.
 ---------------------------------------------------------------
  

 Cite this work as:
 Gaussian 16, Revision C.01,
 M. J. Frisch, G. W. Trucks, H. B. Schlegel, G. E. Scuseria, 
 M. A. Robb, J. R. Cheeseman, G. Scalmani, V. Barone, 
 G. A. Petersson, H. Nakatsuji, X. Li, M. Caricato, A. V. Marenich, 
 J. Bloino, B. G. Janesko, R. Gomperts, B. Mennucci, H. P. Hratchian, 
 J. V. Ortiz, A. F. Izmaylov, J. L. Sonnenberg, D. Williams-Young, 
 F. Ding, F. Lipparini, F. Egidi, J. Goings, B. Peng, A. Petrone, 
 T. Henderson, D. Ranasinghe, V. G. Zakrzewski, J. Gao, N. Rega, 
 G. Zheng, W. Liang, M. Hada, M. Ehara, K. Toyota, R. Fukuda, 
 J. Hasegawa, M. Ishida, T. Nakajima, Y. Honda, O. Kitao, H. Nakai, 
 T. Vreven, K. Throssell, J. A. Montgomery, Jr., J. E. Peralta, 
 F. Ogliaro, M. J. Bearpark, J. J. Heyd, E. N. Brothers, K. N. Kudin, 
 V. N. Staroverov, T. A. Keith, R. Kobayashi, J. Normand, 
 K. Raghavachari, A. P. Rendell, J. C. Burant, S. S. Iyengar, 
 J. Tomasi, M. Cossi, J. M. Millam, M. Klene, C. Adamo, R. Cammi, 
 J. W. Ochterski, R. L. Martin, K. Morokuma, O. Farkas, 
 J. B. Foresman, and D. J. Fox, Gaussian, Inc., Wallingford CT, 2019.
 
 ******************************************
 Gaussian 16:  ES64L-G16RevC.01  3-Jul-2019
                20-Feb-2023 
 ******************************************
 %nproc=4
 Will use up to    4 processors via shared memory.
 %mem=5760MB
 %chk=gaussian_104_water_hf_adz2.chk
 -----------------------------------
 #P HF/aug-cc-pVDZ scf(maxcycle=200)
 -----------------------------------
 1/38=1,172=1/1;
 2/12=2,17=6,18=5,40=1/2;
 3/5=16,7=10,11=9,25=1,30=1/1,2,3;
 4//1;
 5/5=2,7=200,38=5/2;
 6/7=2,8=2,9=2,10=2,28=1/1;
 99/5=1,9=1/99;
 Leave Link    1 at Mon Feb 20 10:16:17 2023, MaxMem=   754974720 cpu:               0.1 elap:               0.1
 (Enter /opt/cluster/programs/g16-c.01/g16/l101.exe)
 --------------
 Gaussian input
 --------------
 Symbolic Z-matrix:
 Charge =  0 Multiplicity = 1
 O                     0.        0.11751   0. 
 H                     0.75785  -0.47015   0. 
 H                    -0.65182  -0.65269   0. 
 
 ITRead=  0  0  0
 MicOpt= -1 -1 -1
 NAtoms=      3 NQM=        3 NQMF=       0 NMMI=      0 NMMIF=      0
                NMic=       0 NMicF=      0.
                    Isotopes and Nuclear Properties:
 (Nuclear quadrupole moments (NQMom) in fm**2, nuclear magnetic moments (NMagM)
  in nuclear magnetons)

  Atom         1           2           3
 IAtWgt=          16           1           1
 AtmWgt=  15.9949146   1.0078250   1.0078250
 NucSpn=           0           1           1
 AtZEff=  -0.0000000  -0.0000000  -0.0000000
 NQMom=    0.0000000   0.0000000   0.0000000
 NMagM=    0.0000000   2.7928460   2.7928460
 AtZNuc=   8.0000000   1.0000000   1.0000000
 Leave Link  101 at Mon Feb 20 10:16:17 2023, MaxMem=   754974720 cpu:               0.8 elap:               0.4
 (Enter /opt/cluster/programs/g16-c.01/g16/l202.exe)
                          Input orientation:                          
 ---------------------------------------------------------------------
 Center     Atomic      Atomic             Coordinates (Angstroms)
 Number     Number       Type             X           Y           Z
 ---------------------------------------------------------------------
      1          8           0        0.000000    0.117510    0.000000
      2          1           0        0.757850   -0.470150    0.000000
      3          1           0       -0.651820   -0.652693    0.000000
 ---------------------------------------------------------------------
                    Distance matrix (angstroms):
                    1          2          3
     1  O    0.000000
     2  H    0.959000   0.000000
     3  H    1.009000   1.421439   0.000000
 Stoichiometry    H2O
 Framework group  CS[SG(H2O)]
 Deg. of freedom     3
 Full point group                 CS      NOp   2
 Largest Abelian subgroup         CS      NOp   2
 Largest concise Abelian subgroup C1      NOp   1
                         Standard orientation:                         
 ---------------------------------------------------------------------
 Center     Atomic      Atomic             Coordinates (Angstroms)
 Number     Number       Type             X           Y           Z
 ---------------------------------------------------------------------
      1          8           0        0.000000    0.136200    0.000000
      2          1           0        0.709801   -0.508675    0.000000
      3          1           0       -0.709801   -0.580922    0.000000
 ---------------------------------------------------------------------
 Rotational constants (GHZ):         616.9287114         491.0766923         273.4276475
 Leave Link  202 at Mon Feb 20 10:16:17 2023, MaxMem=   754974720 cpu:               0.1 elap:               0.1
 (Enter /opt/cluster/programs/g16-c.01/g16/l301.exe)
 Standard basis: Aug-CC-pVDZ (5D, 7F)
 Ernie: Thresh=  0.10000D-02 Tol=  0.10000D-05 Strict=F.
 Ernie:  2 primitive shells out of 39 were deleted.
 There are    32 symmetry adapted cartesian basis functions of A'  symmetry.
 There are    11 symmetry adapted cartesian basis functions of A"  symmetry.
 There are    30 symmetry adapted basis functions of A'  symmetry.
 There are    11 symmetry adapted basis functions of A"  symmetry.
    41 basis functions,    65 primitive gaussians,    43 cartesian basis functions
     5 alpha electrons        5 beta electrons
       nuclear repulsion energy         8.9823478746 Hartrees.
 IExCor=    0 DFT=F Ex=HF Corr=None ExCW=0 ScaHFX=  1.000000
 ScaDFX=  1.000000  1.000000  1.000000  1.000000 ScalE2=  1.000000  1.000000
 IRadAn=      5 IRanWt=     -1 IRanGd=            0 ICorTp=0 IEmpDi=  4
 NAtoms=    3 NActive=    3 NUniq=    3 SFac= 1.00D+00 NAtFMM=   60 NAOKFM=F Big=F
 Integral buffers will be    131072 words long.
 Raffenetti 1 integral format.
 Two-electron integral symmetry is turned on.
 Leave Link  301 at Mon Feb 20 10:16:17 2023, MaxMem=   754974720 cpu:               0.1 elap:               0.1
 (Enter /opt/cluster/programs/g16-c.01/g16/l302.exe)
 NPDir=0 NMtPBC=     1 NCelOv=     1 NCel=       1 NClECP=     1 NCelD=      1
         NCelK=      1 NCelE2=     1 NClLst=     1 CellRange=     0.0.
 One-electron integrals computed using PRISM.
 One-electron integral symmetry used in STVInt
 NBasis=    41 RedAO= T EigKep=  2.33D-03  NBF=    30    11
 NBsUse=    41 1.00D-06 EigRej= -1.00D+00 NBFU=    30    11
 Leave Link  302 at Mon Feb 20 10:16:18 2023, MaxMem=   754974720 cpu:               1.0 elap:               0.5
 (Enter /opt/cluster/programs/g16-c.01/g16/l303.exe)
 DipDrv:  MaxL=1.
 Leave Link  303 at Mon Feb 20 10:16:18 2023, MaxMem=   754974720 cpu:               0.8 elap:               0.4
 (Enter /opt/cluster/programs/g16-c.01/g16/l401.exe)
 ExpMin= 2.97D-02 ExpMax= 1.17D+04 ExpMxC= 4.01D+02 IAcc=3 IRadAn=         5 AccDes= 0.00D+00
 Harris functional with IExCor=  205 and IRadAn=       5 diagonalized for initial guess.
 HarFok:  IExCor=  205 AccDes= 0.00D+00 IRadAn=         5 IDoV= 1 UseB2=F ITyADJ=14
 ICtDFT=  3500011 ScaDFX=  1.000000  1.000000  1.000000  1.000000
 FoFCou: FMM=F IPFlag=           0 FMFlag=      100000 FMFlg1=           0
         NFxFlg=           0 DoJE=T BraDBF=F KetDBF=T FulRan=T
         wScrn=  0.000000 ICntrl=       500 IOpCl=  0 I1Cent=   200000004 NGrid=           0
         NMat0=    1 NMatS0=      1 NMatT0=    0 NMatD0=    1 NMtDS0=    0 NMtDT0=    0
 Petite list used in FoFCou.
 Harris En= -76.1178111253389    
 JPrj=0 DoOrth=F DoCkMO=F.
 Initial guess orbital symmetries:
       Occupied  (A') (A') (A') (A') (A")
       Virtual   (A') (A') (A') (A") (A') (A') (A') (A') (A') (A")
                 (A") (A') (A') (A') (A') (A') (A") (A') (A") (A')
                 (A") (A') (A') (A") (A') (A") (A') (A') (A') (A')
                 (A') (A") (A') (A") (A') (A')
 The electronic state of the initial guess is 1-A'.
 Leave Link  401 at Mon Feb 20 10:16:19 2023, MaxMem=   754974720 cpu:               1.6 elap:               0.8
 (Enter /opt/cluster/programs/g16-c.01/g16/l502.exe)
 Keep R1 ints in memory in symmetry-blocked form, NReq=1210668.
 FoFCou: FMM=F IPFlag=           0 FMFlag=           0 FMFlg1=           0
         NFxFlg=           0 DoJE=F BraDBF=F KetDBF=F FulRan=T
         wScrn=  0.000000 ICntrl=       600 IOpCl=  0 I1Cent=           0 NGrid=           0
         NMat0=    1 NMatS0=    861 NMatT0=    0 NMatD0=    1 NMtDS0=    0 NMtDT0=    0
 Petite list used in FoFCou.
 Closed shell SCF:
 Using DIIS extrapolation, IDIIS=  1040.
 NGot=   754974720 LenX=   754771907 LenY=   754769617
 Requested convergence on RMS density matrix=1.00D-08 within 200 cycles.
 Requested convergence on MAX density matrix=1.00D-06.
 Requested convergence on             energy=1.00D-06.
 No special actions if energy rises.

 Cycle   1  Pass 1  IDiag  1:
 E= -75.9599194938896    
 DIIS: error= 4.88D-02 at cycle   1 NSaved=   1.
 NSaved= 1 IEnMin= 1 EnMin= -75.9599194938896     IErMin= 1 ErrMin= 4.88D-02
 ErrMax= 4.88D-02  0.00D+00 EMaxC= 1.00D-01 BMatC= 1.11D-01 BMatP= 1.11D-01
 IDIUse=3 WtCom= 5.12D-01 WtEn= 4.88D-01
 Coeff-Com:  0.100D+01
 Coeff-En:   0.100D+01
 Coeff:      0.100D+01
 Gap=     0.462 Goal=   None    Shift=    0.000
 GapD=    0.462 DampG=2.000 DampE=0.500 DampFc=1.0000 IDamp=-1.
 RMSDP=6.17D-03 MaxDP=1.12D-01              OVMax= 1.23D-01

 Cycle   2  Pass 1  IDiag  1:
 E= -76.0006649982958     Delta-E=       -0.040745504406 Rises=F Damp=F
 DIIS: error= 4.06D-02 at cycle   2 NSaved=   2.
 NSaved= 2 IEnMin= 2 EnMin= -76.0006649982958     IErMin= 2 ErrMin= 4.06D-02
 ErrMax= 4.06D-02  0.00D+00 EMaxC= 1.00D-01 BMatC= 4.58D-02 BMatP= 1.11D-01
 IDIUse=3 WtCom= 5.94D-01 WtEn= 4.06D-01
 Coeff-Com:  0.380D+00 0.620D+00
 Coeff-En:   0.235D+00 0.765D+00
 Coeff:      0.321D+00 0.679D+00
 Gap=     0.560 Goal=   None    Shift=    0.000
 RMSDP=2.98D-03 MaxDP=5.42D-02 DE=-4.07D-02 OVMax= 5.90D-02

 Cycle   3  Pass 1  IDiag  1:
 E= -76.0325853271835     Delta-E=       -0.031920328888 Rises=F Damp=F
 DIIS: error= 4.25D-03 at cycle   3 NSaved=   3.
 NSaved= 3 IEnMin= 3 EnMin= -76.0325853271835     IErMin= 3 ErrMin= 4.25D-03
 ErrMax= 4.25D-03  0.00D+00 EMaxC= 1.00D-01 BMatC= 1.09D-03 BMatP= 4.58D-02
 IDIUse=3 WtCom= 9.57D-01 WtEn= 4.25D-02
 Coeff-Com: -0.394D-01 0.875D-01 0.952D+00
 Coeff-En:   0.000D+00 0.000D+00 0.100D+01
 Coeff:     -0.377D-01 0.838D-01 0.954D+00
 Gap=     0.543 Goal=   None    Shift=    0.000
 RMSDP=4.60D-04 MaxDP=8.34D-03 DE=-3.19D-02 OVMax= 9.60D-03

 Cycle   4  Pass 1  IDiag  1:
 E= -76.0334347928817     Delta-E=       -0.000849465698 Rises=F Damp=F
 DIIS: error= 7.47D-04 at cycle   4 NSaved=   4.
 NSaved= 4 IEnMin= 4 EnMin= -76.0334347928817     IErMin= 4 ErrMin= 7.47D-04
 ErrMax= 7.47D-04  0.00D+00 EMaxC= 1.00D-01 BMatC= 8.42D-06 BMatP= 1.09D-03
 IDIUse=3 WtCom= 9.93D-01 WtEn= 7.47D-03
 Coeff-Com:  0.978D-02-0.431D-01-0.348D+00 0.138D+01
 Coeff-En:   0.000D+00 0.000D+00 0.000D+00 0.100D+01
 Coeff:      0.971D-02-0.428D-01-0.345D+00 0.138D+01
 Gap=     0.544 Goal=   None    Shift=    0.000
 RMSDP=1.18D-04 MaxDP=1.40D-03 DE=-8.49D-04 OVMax= 2.17D-03

 Cycle   5  Pass 1  IDiag  1:
 E= -76.0334560478147     Delta-E=       -0.000021254933 Rises=F Damp=F
 DIIS: error= 2.00D-04 at cycle   5 NSaved=   5.
 NSaved= 5 IEnMin= 5 EnMin= -76.0334560478147     IErMin= 5 ErrMin= 2.00D-04
 ErrMax= 2.00D-04  0.00D+00 EMaxC= 1.00D-01 BMatC= 3.60D-07 BMatP= 8.42D-06
 IDIUse=3 WtCom= 9.98D-01 WtEn= 2.00D-03
 Coeff-Com: -0.502D-03 0.501D-02 0.384D-01-0.318D+00 0.127D+01
 Coeff-En:   0.000D+00 0.000D+00 0.000D+00 0.000D+00 0.100D+01
 Coeff:     -0.501D-03 0.500D-02 0.384D-01-0.317D+00 0.127D+01
 Gap=     0.544 Goal=   None    Shift=    0.000
 RMSDP=2.66D-05 MaxDP=4.47D-04 DE=-2.13D-05 OVMax= 6.15D-04

 Cycle   6  Pass 1  IDiag  1:
 E= -76.0334571209951     Delta-E=       -0.000001073180 Rises=F Damp=F
 DIIS: error= 3.51D-05 at cycle   6 NSaved=   6.
 NSaved= 6 IEnMin= 6 EnMin= -76.0334571209951     IErMin= 6 ErrMin= 3.51D-05
 ErrMax= 3.51D-05  0.00D+00 EMaxC= 1.00D-01 BMatC= 1.34D-08 BMatP= 3.60D-07
 IDIUse=1 WtCom= 1.00D+00 WtEn= 0.00D+00
 Coeff-Com: -0.367D-03 0.128D-02 0.102D-01-0.178D-01-0.217D+00 0.122D+01
 Coeff:     -0.367D-03 0.128D-02 0.102D-01-0.178D-01-0.217D+00 0.122D+01
 Gap=     0.545 Goal=   None    Shift=    0.000
 RMSDP=4.61D-06 MaxDP=9.87D-05 DE=-1.07D-06 OVMax= 1.32D-04

 Cycle   7  Pass 1  IDiag  1:
 E= -76.0334571606994     Delta-E=       -0.000000039704 Rises=F Damp=F
 DIIS: error= 5.47D-06 at cycle   7 NSaved=   7.
 NSaved= 7 IEnMin= 7 EnMin= -76.0334571606994     IErMin= 7 ErrMin= 5.47D-06
 ErrMax= 5.47D-06  0.00D+00 EMaxC= 1.00D-01 BMatC= 5.50D-10 BMatP= 1.34D-08
 IDIUse=1 WtCom= 1.00D+00 WtEn= 0.00D+00
 Coeff-Com:  0.130D-03-0.608D-03-0.508D-02 0.227D-01-0.539D-02-0.300D+00
 Coeff-Com:  0.129D+01
 Coeff:      0.130D-03-0.608D-03-0.508D-02 0.227D-01-0.539D-02-0.300D+00
 Coeff:      0.129D+01
 Gap=     0.545 Goal=   None    Shift=    0.000
 RMSDP=8.59D-07 MaxDP=1.30D-05 DE=-3.97D-08 OVMax= 2.21D-05

 Cycle   8  Pass 1  IDiag  1:
 E= -76.0334571619648     Delta-E=       -0.000000001265 Rises=F Damp=F
 DIIS: error= 6.69D-07 at cycle   8 NSaved=   8.
 NSaved= 8 IEnMin= 8 EnMin= -76.0334571619648     IErMin= 8 ErrMin= 6.69D-07
 ErrMax= 6.69D-07  0.00D+00 EMaxC= 1.00D-01 BMatC= 1.30D-11 BMatP= 5.50D-10
 IDIUse=1 WtCom= 1.00D+00 WtEn= 0.00D+00
 Coeff-Com: -0.245D-04 0.127D-03 0.111D-02-0.588D-02 0.737D-02 0.525D-01
 Coeff-Com: -0.380D+00 0.132D+01
 Coeff:     -0.245D-04 0.127D-03 0.111D-02-0.588D-02 0.737D-02 0.525D-01
 Coeff:     -0.380D+00 0.132D+01
 Gap=     0.545 Goal=   None    Shift=    0.000
 RMSDP=1.88D-07 MaxDP=2.45D-06 DE=-1.27D-09 OVMax= 3.50D-06

 Cycle   9  Pass 1  IDiag  1:
 E= -76.0334571619993     Delta-E=       -0.000000000034 Rises=F Damp=F
 DIIS: error= 1.05D-07 at cycle   9 NSaved=   9.
 NSaved= 9 IEnMin= 9 EnMin= -76.0334571619993     IErMin= 9 ErrMin= 1.05D-07
 ErrMax= 1.05D-07  0.00D+00 EMaxC= 1.00D-01 BMatC= 4.06D-13 BMatP= 1.30D-11
 IDIUse=1 WtCom= 1.00D+00 WtEn= 0.00D+00
 Coeff-Com:  0.727D-06-0.502D-05-0.627D-04 0.497D-03-0.129D-02-0.186D-02
 Coeff-Com:  0.427D-01-0.278D+00 0.124D+01
 Coeff:      0.727D-06-0.502D-05-0.627D-04 0.497D-03-0.129D-02-0.186D-02
 Coeff:      0.427D-01-0.278D+00 0.124D+01
 Gap=     0.545 Goal=   None    Shift=    0.000
 RMSDP=2.94D-08 MaxDP=3.56D-07 DE=-3.45D-11 OVMax= 5.36D-07

 Cycle  10  Pass 1  IDiag  1:
 E= -76.0334571620002     Delta-E=       -0.000000000001 Rises=F Damp=F
 DIIS: error= 2.72D-08 at cycle  10 NSaved=  10.
 NSaved=10 IEnMin=10 EnMin= -76.0334571620002     IErMin=10 ErrMin= 2.72D-08
 ErrMax= 2.72D-08  0.00D+00 EMaxC= 1.00D-01 BMatC= 2.42D-14 BMatP= 4.06D-13
 IDIUse=1 WtCom= 1.00D+00 WtEn= 0.00D+00
 Coeff-Com:  0.120D-05-0.598D-05-0.471D-04 0.204D-03-0.456D-04-0.265D-02
 Coeff-Com:  0.120D-01-0.164D-01-0.276D+00 0.128D+01
 Coeff:      0.120D-05-0.598D-05-0.471D-04 0.204D-03-0.456D-04-0.265D-02
 Coeff:      0.120D-01-0.164D-01-0.276D+00 0.128D+01
 Gap=     0.545 Goal=   None    Shift=    0.000
 RMSDP=8.37D-09 MaxDP=8.95D-08 DE=-9.24D-13 OVMax= 1.88D-07

 SCF Done:  E(RHF) =  -76.0334571620     A.U. after   10 cycles
            NFock= 10  Conv=0.84D-08     -V/T= 2.0025
 KE= 7.584739736983D+01 PE=-1.984085466720D+02 EE= 3.754534426554D+01
 Leave Link  502 at Mon Feb 20 10:16:21 2023, MaxMem=   754974720 cpu:               4.3 elap:               1.6
 (Enter /opt/cluster/programs/g16-c.01/g16/l601.exe)
 Copying SCF densities to generalized density rwf, IOpCl= 0 IROHF=0.

 **********************************************************************

            Population analysis using the SCF Density.

 **********************************************************************

 Orbital symmetries:
       Occupied  (A') (A') (A') (A') (A")
       Virtual   (A') (A') (A') (A") (A') (A') (A') (A') (A') (A")
                 (A") (A') (A') (A') (A') (A') (A") (A') (A") (A')
                 (A') (A") (A') (A") (A') (A") (A') (A') (A') (A')
                 (A') (A") (A') (A") (A') (A')
 The electronic state is 1-A'.
 Alpha  occ. eigenvalues --  -20.58672  -1.35261  -0.68111  -0.60396  -0.51083
 Alpha virt. eigenvalues --    0.03377   0.05887   0.17273   0.19926   0.22121
 Alpha virt. eigenvalues --    0.23594   0.27703   0.34768   0.37835   0.39052
 Alpha virt. eigenvalues --    0.41344   0.54702   0.63480   0.65972   0.77448
 Alpha virt. eigenvalues --    0.95207   1.11293   1.12444   1.14539   1.26718
 Alpha virt. eigenvalues --    1.43632   1.46022   1.59304   1.97490   2.01584
 Alpha virt. eigenvalues --    2.12124   2.19718   2.44184   2.60241   2.68007
 Alpha virt. eigenvalues --    3.04889   3.67588   3.68853   3.69418   3.96032
 Alpha virt. eigenvalues --    4.26541
          Condensed to atoms (all electrons):
               1          2          3
     1  O    7.704342   0.326552   0.309808
     2  H    0.326552   0.540003  -0.011698
     3  H    0.309808  -0.011698   0.506329
 Mulliken charges:
               1
     1  O   -0.340703
     2  H    0.145142
     3  H    0.195560
 Sum of Mulliken charges =   0.00000
 Mulliken charges with hydrogens summed into heavy atoms:
               1
     1  O    0.000000
 Electronic spatial extent (au):  <R**2>=             19.8609
 Charge=              0.0000 electrons
 Dipole moment (field-independent basis, Debye):
    X=              0.0300    Y=             -2.2085    Z=              0.0000  Tot=              2.2087
 Quadrupole moment (field-independent basis, Debye-Ang):
   XX=             -4.7778   YY=             -5.8895   ZZ=             -7.6299
   XY=              0.1030   XZ=              0.0000   YZ=              0.0000
 Traceless Quadrupole moment (field-independent basis, Debye-Ang):
   XX=              1.3213   YY=              0.2095   ZZ=             -1.5308
   XY=              0.1030   XZ=              0.0000   YZ=              0.0000
 Octapole moment (field-independent basis, Debye-Ang**2):
  XXX=              0.0838  YYY=             -1.4288  ZZZ=              0.0000  XYY=             -0.0886
  XXY=             -1.3826  XXZ=              0.0000  XZZ=              0.0313  YZZ=             -0.3001
  YYZ=              0.0000  XYZ=              0.0000
 Hexadecapole moment (field-independent basis, Debye-Ang**3):
 XXXX=             -6.5611 YYYY=             -7.5554 ZZZZ=             -6.8213 XXXY=             -0.0358
 XXXZ=              0.0000 YYYX=              0.0107 YYYZ=              0.0000 ZZZX=              0.0000
 ZZZY=              0.0000 XXYY=             -1.8585 XXZZ=             -2.4620 YYZZ=             -2.4864
 XXYZ=              0.0000 YYXZ=              0.0000 ZZXY=             -0.0361
 N-N= 8.982347874615D+00 E-N=-1.984085466113D+02  KE= 7.584739736983D+01
 Symmetry A'   KE= 7.138711682517D+01
 Symmetry A"   KE= 4.460280544665D+00
 No NMR shielding tensors so no spin-rotation constants.
 Leave Link  601 at Mon Feb 20 10:16:21 2023, MaxMem=   754974720 cpu:               0.7 elap:               0.3
 (Enter /opt/cluster/programs/g16-c.01/g16/l9999.exe)
 Unable to Open any file for archive entry.
 1\1\GINC-NODE105\SP\RHF\Aug-CC-pVDZ\H2O1\BOITTIER\20-Feb-2023\0\\#P HF
 /aug-cc-pVDZ scf(maxcycle=200)\\Gaussian input\\0,1\O,0,0.,0.11751,0.\
 H,0,0.7578497316,-0.4701504329,0.\H,0,-0.6518197504,-0.6526925792,0.\\
 Version=ES64L-G16RevC.01\State=1-A'\HF=-76.0334572\RMSD=8.367e-09\Dipo
 le=0.0793961,-0.865318,0.\Quadrupole=0.9654549,0.1726883,-1.1381432,0.
 1398017,0.,0.\PG=CS [SG(H2O1)]\\@
 The archive entry for this job was punched.


 IF AT FIRST YOU DON'T SUCCEED, TRY LOOKING IN 
 THE WASTEBASKET FOR THE DIRECTIONS.
 Job cpu time:       0 days  0 hours  0 minutes  9.7 seconds.
 Elapsed time:       0 days  0 hours  0 minutes  4.2 seconds.
 File lengths (MBytes):  RWF=      6 Int=      0 D2E=      0 Chk=      1 Scr=      1
 Normal termination of Gaussian 16 at Mon Feb 20 10:16:21 2023.
