 Entering Gaussian System, Link 0=/opt/cluster/programs/g16-c.01/g16/g16
 Input=/scratch/boittier/jobs/tmp.7311887/gaussian_59_water_hf_adz2.com
 Output=/scratch/boittier/jobs/tmp.7311887/gaussian_59_water_hf_adz2.out
 Initial command:
 /opt/cluster/programs/g16-c.01/g16/l1.exe "/scratch/boittier/jobs/tmp.7311887/Gau-158596.inp" -scrdir="/scratch/boittier/jobs/tmp.7311887/"
 Entering Link 1 = /opt/cluster/programs/g16-c.01/g16/l1.exe PID=    158597.
  
 Copyright (c) 1988-2019, Gaussian, Inc.  All Rights Reserved.
  
 This is part of the Gaussian(R) 16 program.  It is based on
 the Gaussian(R) 09 system (copyright 2009, Gaussian, Inc.),
 the Gaussian(R) 03 system (copyright 2003, Gaussian, Inc.),
 the Gaussian(R) 98 system (copyright 1998, Gaussian, Inc.),
 the Gaussian(R) 94 system (copyright 1995, Gaussian, Inc.),
 the Gaussian 92(TM) system (copyright 1992, Gaussian, Inc.),
 the Gaussian 90(TM) system (copyright 1990, Gaussian, Inc.),
 the Gaussian 88(TM) system (copyright 1988, Gaussian, Inc.),
 the Gaussian 86(TM) system (copyright 1986, Carnegie Mellon
 University), and the Gaussian 82(TM) system (copyright 1983,
 Carnegie Mellon University). Gaussian is a federally registered
 trademark of Gaussian, Inc.
  
 This software contains proprietary and confidential information,
 including trade secrets, belonging to Gaussian, Inc.
  
 This software is provided under written license and may be
 used, copied, transmitted, or stored only in accord with that
 written license.
  
 The following legend is applicable only to US Government
 contracts under FAR:
  
                    RESTRICTED RIGHTS LEGEND
  
 Use, reproduction and disclosure by the US Government is
 subject to restrictions as set forth in subparagraphs (a)
 and (c) of the Commercial Computer Software - Restricted
 Rights clause in FAR 52.227-19.
  
 Gaussian, Inc.
 340 Quinnipiac St., Bldg. 40, Wallingford CT 06492
  
  
 ---------------------------------------------------------------
 Warning -- This program may not be used in any manner that
 competes with the business of Gaussian, Inc. or will provide
 assistance to any competitor of Gaussian, Inc.  The licensee
 of this program is prohibited from giving any competitor of
 Gaussian, Inc. access to this program.  By using this program,
 the user acknowledges that Gaussian, Inc. is engaged in the
 business of creating and licensing software in the field of
 computational chemistry and represents and warrants to the
 licensee that it is not a competitor of Gaussian, Inc. and that
 it will not use this program in any manner prohibited above.
 ---------------------------------------------------------------
  

 Cite this work as:
 Gaussian 16, Revision C.01,
 M. J. Frisch, G. W. Trucks, H. B. Schlegel, G. E. Scuseria, 
 M. A. Robb, J. R. Cheeseman, G. Scalmani, V. Barone, 
 G. A. Petersson, H. Nakatsuji, X. Li, M. Caricato, A. V. Marenich, 
 J. Bloino, B. G. Janesko, R. Gomperts, B. Mennucci, H. P. Hratchian, 
 J. V. Ortiz, A. F. Izmaylov, J. L. Sonnenberg, D. Williams-Young, 
 F. Ding, F. Lipparini, F. Egidi, J. Goings, B. Peng, A. Petrone, 
 T. Henderson, D. Ranasinghe, V. G. Zakrzewski, J. Gao, N. Rega, 
 G. Zheng, W. Liang, M. Hada, M. Ehara, K. Toyota, R. Fukuda, 
 J. Hasegawa, M. Ishida, T. Nakajima, Y. Honda, O. Kitao, H. Nakai, 
 T. Vreven, K. Throssell, J. A. Montgomery, Jr., J. E. Peralta, 
 F. Ogliaro, M. J. Bearpark, J. J. Heyd, E. N. Brothers, K. N. Kudin, 
 V. N. Staroverov, T. A. Keith, R. Kobayashi, J. Normand, 
 K. Raghavachari, A. P. Rendell, J. C. Burant, S. S. Iyengar, 
 J. Tomasi, M. Cossi, J. M. Millam, M. Klene, C. Adamo, R. Cammi, 
 J. W. Ochterski, R. L. Martin, K. Morokuma, O. Farkas, 
 J. B. Foresman, and D. J. Fox, Gaussian, Inc., Wallingford CT, 2019.
 
 ******************************************
 Gaussian 16:  ES64L-G16RevC.01  3-Jul-2019
                20-Feb-2023 
 ******************************************
 %nproc=4
 Will use up to    4 processors via shared memory.
 %mem=5760MB
 %chk=gaussian_59_water_hf_adz2.chk
 -----------------------------------
 #P HF/aug-cc-pVDZ scf(maxcycle=200)
 -----------------------------------
 1/38=1,172=1/1;
 2/12=2,17=6,18=5,40=1/2;
 3/5=16,7=10,11=9,25=1,30=1/1,2,3;
 4//1;
 5/5=2,7=200,38=5/2;
 6/7=2,8=2,9=2,10=2,28=1/1;
 99/5=1,9=1/99;
 Leave Link    1 at Mon Feb 20 10:15:25 2023, MaxMem=   754974720 cpu:               0.1 elap:               0.0
 (Enter /opt/cluster/programs/g16-c.01/g16/l101.exe)
 --------------
 Gaussian input
 --------------
 Symbolic Z-matrix:
 Charge =  0 Multiplicity = 1
 O                     0.        0.11751   0. 
 H                     0.71834  -0.43951   0. 
 H                    -0.94959  -0.2236    0. 
 
 ITRead=  0  0  0
 MicOpt= -1 -1 -1
 NAtoms=      3 NQM=        3 NQMF=       0 NMMI=      0 NMMIF=      0
                NMic=       0 NMicF=      0.
                    Isotopes and Nuclear Properties:
 (Nuclear quadrupole moments (NQMom) in fm**2, nuclear magnetic moments (NMagM)
  in nuclear magnetons)

  Atom         1           2           3
 IAtWgt=          16           1           1
 AtmWgt=  15.9949146   1.0078250   1.0078250
 NucSpn=           0           1           1
 AtZEff=  -0.0000000  -0.0000000  -0.0000000
 NQMom=    0.0000000   0.0000000   0.0000000
 NMagM=    0.0000000   2.7928460   2.7928460
 AtZNuc=   8.0000000   1.0000000   1.0000000
 Leave Link  101 at Mon Feb 20 10:15:26 2023, MaxMem=   754974720 cpu:               0.6 elap:               0.2
 (Enter /opt/cluster/programs/g16-c.01/g16/l202.exe)
                          Input orientation:                          
 ---------------------------------------------------------------------
 Center     Atomic      Atomic             Coordinates (Angstroms)
 Number     Number       Type             X           Y           Z
 ---------------------------------------------------------------------
      1          8           0        0.000000    0.117510    0.000000
      2          1           0        0.718337   -0.439511    0.000000
      3          1           0       -0.949594   -0.223595    0.000000
 ---------------------------------------------------------------------
                    Distance matrix (angstroms):
                    1          2          3
     1  O    0.000000
     2  H    0.909000   0.000000
     3  H    1.009000   1.681848   0.000000
 Stoichiometry    H2O
 Framework group  CS[SG(H2O)]
 Deg. of freedom     3
 Full point group                 CS      NOp   2
 Largest Abelian subgroup         CS      NOp   2
 Largest concise Abelian subgroup C1      NOp   1
                         Standard orientation:                         
 ---------------------------------------------------------------------
 Center     Atomic      Atomic             Coordinates (Angstroms)
 Number     Number       Type             X           Y           Z
 ---------------------------------------------------------------------
      1          8           0        0.000000    0.092742    0.000000
      2          1           0        0.834542   -0.267564    0.000000
      3          1           0       -0.834542   -0.474374    0.000000
 ---------------------------------------------------------------------
 Rotational constants (GHZ):        1340.5237954         352.6014389         279.1705006
 Leave Link  202 at Mon Feb 20 10:15:26 2023, MaxMem=   754974720 cpu:               0.0 elap:               0.0
 (Enter /opt/cluster/programs/g16-c.01/g16/l301.exe)
 Standard basis: Aug-CC-pVDZ (5D, 7F)
 Ernie: Thresh=  0.10000D-02 Tol=  0.10000D-05 Strict=F.
 Ernie:  2 primitive shells out of 39 were deleted.
 There are    32 symmetry adapted cartesian basis functions of A'  symmetry.
 There are    11 symmetry adapted cartesian basis functions of A"  symmetry.
 There are    30 symmetry adapted basis functions of A'  symmetry.
 There are    11 symmetry adapted basis functions of A"  symmetry.
    41 basis functions,    65 primitive gaussians,    43 cartesian basis functions
     5 alpha electrons        5 beta electrons
       nuclear repulsion energy         9.1675222397 Hartrees.
 IExCor=    0 DFT=F Ex=HF Corr=None ExCW=0 ScaHFX=  1.000000
 ScaDFX=  1.000000  1.000000  1.000000  1.000000 ScalE2=  1.000000  1.000000
 IRadAn=      5 IRanWt=     -1 IRanGd=            0 ICorTp=0 IEmpDi=  4
 NAtoms=    3 NActive=    3 NUniq=    3 SFac= 1.00D+00 NAtFMM=   60 NAOKFM=F Big=F
 Integral buffers will be    131072 words long.
 Raffenetti 1 integral format.
 Two-electron integral symmetry is turned on.
 Leave Link  301 at Mon Feb 20 10:15:26 2023, MaxMem=   754974720 cpu:               0.1 elap:               0.0
 (Enter /opt/cluster/programs/g16-c.01/g16/l302.exe)
 NPDir=0 NMtPBC=     1 NCelOv=     1 NCel=       1 NClECP=     1 NCelD=      1
         NCelK=      1 NCelE2=     1 NClLst=     1 CellRange=     0.0.
 One-electron integrals computed using PRISM.
 One-electron integral symmetry used in STVInt
 NBasis=    41 RedAO= T EigKep=  2.79D-03  NBF=    30    11
 NBsUse=    41 1.00D-06 EigRej= -1.00D+00 NBFU=    30    11
 Leave Link  302 at Mon Feb 20 10:15:26 2023, MaxMem=   754974720 cpu:               0.4 elap:               0.1
 (Enter /opt/cluster/programs/g16-c.01/g16/l303.exe)
 DipDrv:  MaxL=1.
 Leave Link  303 at Mon Feb 20 10:15:26 2023, MaxMem=   754974720 cpu:               0.1 elap:               0.0
 (Enter /opt/cluster/programs/g16-c.01/g16/l401.exe)
 ExpMin= 2.97D-02 ExpMax= 1.17D+04 ExpMxC= 4.01D+02 IAcc=3 IRadAn=         5 AccDes= 0.00D+00
 Harris functional with IExCor=  205 and IRadAn=       5 diagonalized for initial guess.
 HarFok:  IExCor=  205 AccDes= 0.00D+00 IRadAn=         5 IDoV= 1 UseB2=F ITyADJ=14
 ICtDFT=  3500011 ScaDFX=  1.000000  1.000000  1.000000  1.000000
 FoFCou: FMM=F IPFlag=           0 FMFlag=      100000 FMFlg1=           0
         NFxFlg=           0 DoJE=T BraDBF=F KetDBF=T FulRan=T
         wScrn=  0.000000 ICntrl=       500 IOpCl=  0 I1Cent=   200000004 NGrid=           0
         NMat0=    1 NMatS0=      1 NMatT0=    0 NMatD0=    1 NMtDS0=    0 NMtDT0=    0
 Petite list used in FoFCou.
 Harris En= -76.1179977023825    
 JPrj=0 DoOrth=F DoCkMO=F.
 Initial guess orbital symmetries:
       Occupied  (A') (A') (A') (A') (A")
       Virtual   (A') (A') (A') (A") (A') (A') (A') (A') (A") (A')
                 (A") (A') (A') (A') (A') (A') (A") (A') (A") (A")
                 (A') (A') (A') (A') (A") (A") (A') (A') (A') (A')
                 (A') (A") (A') (A") (A') (A')
 The electronic state of the initial guess is 1-A'.
 Leave Link  401 at Mon Feb 20 10:15:26 2023, MaxMem=   754974720 cpu:               0.6 elap:               0.1
 (Enter /opt/cluster/programs/g16-c.01/g16/l502.exe)
 Keep R1 ints in memory in symmetry-blocked form, NReq=1210682.
 FoFCou: FMM=F IPFlag=           0 FMFlag=           0 FMFlg1=           0
         NFxFlg=           0 DoJE=F BraDBF=F KetDBF=F FulRan=T
         wScrn=  0.000000 ICntrl=       600 IOpCl=  0 I1Cent=           0 NGrid=           0
         NMat0=    1 NMatS0=    861 NMatT0=    0 NMatD0=    1 NMtDS0=    0 NMtDT0=    0
 Petite list used in FoFCou.
 Closed shell SCF:
 Using DIIS extrapolation, IDIIS=  1040.
 NGot=   754974720 LenX=   754771907 LenY=   754769617
 Requested convergence on RMS density matrix=1.00D-08 within 200 cycles.
 Requested convergence on MAX density matrix=1.00D-06.
 Requested convergence on             energy=1.00D-06.
 No special actions if energy rises.

 Cycle   1  Pass 1  IDiag  1:
 E= -75.9491719057834    
 DIIS: error= 5.24D-02 at cycle   1 NSaved=   1.
 NSaved= 1 IEnMin= 1 EnMin= -75.9491719057834     IErMin= 1 ErrMin= 5.24D-02
 ErrMax= 5.24D-02  0.00D+00 EMaxC= 1.00D-01 BMatC= 1.22D-01 BMatP= 1.22D-01
 IDIUse=3 WtCom= 4.76D-01 WtEn= 5.24D-01
 Coeff-Com:  0.100D+01
 Coeff-En:   0.100D+01
 Coeff:      0.100D+01
 Gap=     0.455 Goal=   None    Shift=    0.000
 GapD=    0.455 DampG=2.000 DampE=0.500 DampFc=1.0000 IDamp=-1.
 RMSDP=6.40D-03 MaxDP=1.21D-01              OVMax= 1.22D-01

 Cycle   2  Pass 1  IDiag  1:
 E= -75.9959818402929     Delta-E=       -0.046809934510 Rises=F Damp=F
 DIIS: error= 4.03D-02 at cycle   2 NSaved=   2.
 NSaved= 2 IEnMin= 2 EnMin= -75.9959818402929     IErMin= 2 ErrMin= 4.03D-02
 ErrMax= 4.03D-02  0.00D+00 EMaxC= 1.00D-01 BMatC= 4.73D-02 BMatP= 1.22D-01
 IDIUse=3 WtCom= 5.97D-01 WtEn= 4.03D-01
 Coeff-Com:  0.373D+00 0.627D+00
 Coeff-En:   0.208D+00 0.792D+00
 Coeff:      0.307D+00 0.693D+00
 Gap=     0.558 Goal=   None    Shift=    0.000
 RMSDP=2.96D-03 MaxDP=5.55D-02 DE=-4.68D-02 OVMax= 6.01D-02

 Cycle   3  Pass 1  IDiag  1:
 E= -76.0284046658811     Delta-E=       -0.032422825588 Rises=F Damp=F
 DIIS: error= 4.95D-03 at cycle   3 NSaved=   3.
 NSaved= 3 IEnMin= 3 EnMin= -76.0284046658811     IErMin= 3 ErrMin= 4.95D-03
 ErrMax= 4.95D-03  0.00D+00 EMaxC= 1.00D-01 BMatC= 1.21D-03 BMatP= 4.73D-02
 IDIUse=3 WtCom= 9.50D-01 WtEn= 4.95D-02
 Coeff-Com: -0.367D-01 0.946D-01 0.942D+00
 Coeff-En:   0.000D+00 0.000D+00 0.100D+01
 Coeff:     -0.349D-01 0.899D-01 0.945D+00
 Gap=     0.539 Goal=   None    Shift=    0.000
 RMSDP=4.81D-04 MaxDP=8.47D-03 DE=-3.24D-02 OVMax= 9.05D-03

 Cycle   4  Pass 1  IDiag  1:
 E= -76.0293164741780     Delta-E=       -0.000911808297 Rises=F Damp=F
 DIIS: error= 5.75D-04 at cycle   4 NSaved=   4.
 NSaved= 4 IEnMin= 4 EnMin= -76.0293164741780     IErMin= 4 ErrMin= 5.75D-04
 ErrMax= 5.75D-04  0.00D+00 EMaxC= 1.00D-01 BMatC= 7.73D-06 BMatP= 1.21D-03
 IDIUse=3 WtCom= 9.94D-01 WtEn= 5.75D-03
 Coeff-Com:  0.815D-02-0.429D-01-0.316D+00 0.135D+01
 Coeff-En:   0.000D+00 0.000D+00 0.000D+00 0.100D+01
 Coeff:      0.811D-02-0.426D-01-0.315D+00 0.135D+01
 Gap=     0.540 Goal=   None    Shift=    0.000
 RMSDP=1.21D-04 MaxDP=1.23D-03 DE=-9.12D-04 OVMax= 2.60D-03

 Cycle   5  Pass 1  IDiag  1:
 E= -76.0293361998513     Delta-E=       -0.000019725673 Rises=F Damp=F
 DIIS: error= 1.60D-04 at cycle   5 NSaved=   5.
 NSaved= 5 IEnMin= 5 EnMin= -76.0293361998513     IErMin= 5 ErrMin= 1.60D-04
 ErrMax= 1.60D-04  0.00D+00 EMaxC= 1.00D-01 BMatC= 3.96D-07 BMatP= 7.73D-06
 IDIUse=3 WtCom= 9.98D-01 WtEn= 1.60D-03
 Coeff-Com:  0.423D-03 0.190D-02 0.926D-02-0.258D+00 0.125D+01
 Coeff-En:   0.000D+00 0.000D+00 0.000D+00 0.000D+00 0.100D+01
 Coeff:      0.422D-03 0.190D-02 0.924D-02-0.258D+00 0.125D+01
 Gap=     0.540 Goal=   None    Shift=    0.000
 RMSDP=3.24D-05 MaxDP=3.62D-04 DE=-1.97D-05 OVMax= 7.81D-04

 Cycle   6  Pass 1  IDiag  1:
 E= -76.0293374860080     Delta-E=       -0.000001286157 Rises=F Damp=F
 DIIS: error= 3.35D-05 at cycle   6 NSaved=   6.
 NSaved= 6 IEnMin= 6 EnMin= -76.0293374860080     IErMin= 6 ErrMin= 3.35D-05
 ErrMax= 3.35D-05  0.00D+00 EMaxC= 1.00D-01 BMatC= 1.77D-08 BMatP= 3.96D-07
 IDIUse=1 WtCom= 1.00D+00 WtEn= 0.00D+00
 Coeff-Com: -0.448D-03 0.173D-02 0.141D-01-0.259D-01-0.234D+00 0.124D+01
 Coeff:     -0.448D-03 0.173D-02 0.141D-01-0.259D-01-0.234D+00 0.124D+01
 Gap=     0.540 Goal=   None    Shift=    0.000
 RMSDP=6.43D-06 MaxDP=9.47D-05 DE=-1.29D-06 OVMax= 1.88D-04

 Cycle   7  Pass 1  IDiag  1:
 E= -76.0293375460397     Delta-E=       -0.000000060032 Rises=F Damp=F
 DIIS: error= 8.23D-06 at cycle   7 NSaved=   7.
 NSaved= 7 IEnMin= 7 EnMin= -76.0293375460397     IErMin= 7 ErrMin= 8.23D-06
 ErrMax= 8.23D-06  0.00D+00 EMaxC= 1.00D-01 BMatC= 9.33D-10 BMatP= 1.77D-08
 IDIUse=1 WtCom= 1.00D+00 WtEn= 0.00D+00
 Coeff-Com:  0.157D-03-0.785D-03-0.628D-02 0.255D-01 0.229D-01-0.458D+00
 Coeff-Com:  0.142D+01
 Coeff:      0.157D-03-0.785D-03-0.628D-02 0.255D-01 0.229D-01-0.458D+00
 Coeff:      0.142D+01
 Gap=     0.540 Goal=   None    Shift=    0.000
 RMSDP=1.31D-06 MaxDP=2.61D-05 DE=-6.00D-08 OVMax= 4.00D-05

 Cycle   8  Pass 1  IDiag  1:
 E= -76.0293375487726     Delta-E=       -0.000000002733 Rises=F Damp=F
 DIIS: error= 1.13D-06 at cycle   8 NSaved=   8.
 NSaved= 8 IEnMin= 8 EnMin= -76.0293375487726     IErMin= 8 ErrMin= 1.13D-06
 ErrMax= 1.13D-06  0.00D+00 EMaxC= 1.00D-01 BMatC= 2.57D-11 BMatP= 9.33D-10
 IDIUse=1 WtCom= 1.00D+00 WtEn= 0.00D+00
 Coeff-Com: -0.724D-05 0.541D-04 0.497D-03-0.352D-02 0.639D-02 0.341D-01
 Coeff-Com: -0.264D+00 0.123D+01
 Coeff:     -0.724D-05 0.541D-04 0.497D-03-0.352D-02 0.639D-02 0.341D-01
 Coeff:     -0.264D+00 0.123D+01
 Gap=     0.540 Goal=   None    Shift=    0.000
 RMSDP=2.10D-07 MaxDP=3.17D-06 DE=-2.73D-09 OVMax= 4.60D-06

 Cycle   9  Pass 1  IDiag  1:
 E= -76.0293375488324     Delta-E=       -0.000000000060 Rises=F Damp=F
 DIIS: error= 1.56D-07 at cycle   9 NSaved=   9.
 NSaved= 9 IEnMin= 9 EnMin= -76.0293375488324     IErMin= 9 ErrMin= 1.56D-07
 ErrMax= 1.56D-07  0.00D+00 EMaxC= 1.00D-01 BMatC= 5.18D-13 BMatP= 2.57D-11
 IDIUse=1 WtCom= 1.00D+00 WtEn= 0.00D+00
 Coeff-Com: -0.569D-05 0.280D-04 0.223D-03-0.834D-03-0.120D-02 0.154D-01
 Coeff-Com: -0.387D-01-0.601D-01 0.109D+01
 Coeff:     -0.569D-05 0.280D-04 0.223D-03-0.834D-03-0.120D-02 0.154D-01
 Coeff:     -0.387D-01-0.601D-01 0.109D+01
 Gap=     0.540 Goal=   None    Shift=    0.000
 RMSDP=3.64D-08 MaxDP=3.93D-07 DE=-5.98D-11 OVMax= 5.53D-07

 Cycle  10  Pass 1  IDiag  1:
 E= -76.0293375488335     Delta-E=       -0.000000000001 Rises=F Damp=F
 DIIS: error= 3.30D-08 at cycle  10 NSaved=  10.
 NSaved=10 IEnMin=10 EnMin= -76.0293375488335     IErMin=10 ErrMin= 3.30D-08
 ErrMax= 3.30D-08  0.00D+00 EMaxC= 1.00D-01 BMatC= 1.86D-14 BMatP= 5.18D-13
 IDIUse=1 WtCom= 1.00D+00 WtEn= 0.00D+00
 Coeff-Com:  0.134D-05-0.700D-05-0.573D-04 0.254D-03 0.176D-03-0.420D-02
 Coeff-Com:  0.145D-01-0.963D-02-0.295D+00 0.129D+01
 Coeff:      0.134D-05-0.700D-05-0.573D-04 0.254D-03 0.176D-03-0.420D-02
 Coeff:      0.145D-01-0.963D-02-0.295D+00 0.129D+01
 Gap=     0.540 Goal=   None    Shift=    0.000
 RMSDP=6.51D-09 MaxDP=7.06D-08 DE=-1.09D-12 OVMax= 1.20D-07

 SCF Done:  E(RHF) =  -76.0293375488     A.U. after   10 cycles
            NFock= 10  Conv=0.65D-08     -V/T= 2.0015
 KE= 7.591208224942D+01 PE=-1.988705333499D+02 EE= 3.776159131197D+01
 Leave Link  502 at Mon Feb 20 10:15:26 2023, MaxMem=   754974720 cpu:               0.6 elap:               0.2
 (Enter /opt/cluster/programs/g16-c.01/g16/l601.exe)
 Copying SCF densities to generalized density rwf, IOpCl= 0 IROHF=0.

 **********************************************************************

            Population analysis using the SCF Density.

 **********************************************************************

 Orbital symmetries:
       Occupied  (A') (A') (A') (A') (A")
       Virtual   (A') (A') (A') (A") (A') (A') (A') (A') (A") (A')
                 (A") (A') (A') (A') (A') (A') (A") (A') (A") (A')
                 (A') (A") (A') (A') (A") (A") (A') (A') (A') (A')
                 (A') (A") (A') (A") (A') (A')
 The electronic state is 1-A'.
 Alpha  occ. eigenvalues --  -20.56779  -1.34619  -0.74925  -0.55056  -0.50384
 Alpha virt. eigenvalues --    0.03639   0.05639   0.17604   0.19470   0.21545
 Alpha virt. eigenvalues --    0.22597   0.29574   0.31497   0.37561   0.44161
 Alpha virt. eigenvalues --    0.46298   0.51988   0.63797   0.66278   0.84560
 Alpha virt. eigenvalues --    0.88900   1.07631   1.08100   1.14870   1.43496
 Alpha virt. eigenvalues --    1.46623   1.50232   1.58595   1.97994   2.02600
 Alpha virt. eigenvalues --    2.11008   2.39278   2.46043   2.64056   2.79841
 Alpha virt. eigenvalues --    2.85124   3.65277   3.66088   3.71269   4.13671
 Alpha virt. eigenvalues --    4.31232
          Condensed to atoms (all electrons):
               1          2          3
     1  O    7.666055   0.361156   0.328899
     2  H    0.361156   0.573512  -0.051543
     3  H    0.328899  -0.051543   0.483409
 Mulliken charges:
               1
     1  O   -0.356110
     2  H    0.116874
     3  H    0.239236
 Sum of Mulliken charges =   0.00000
 Mulliken charges with hydrogens summed into heavy atoms:
               1
     1  O    0.000000
 Electronic spatial extent (au):  <R**2>=             19.6047
 Charge=              0.0000 electrons
 Dipole moment (field-independent basis, Debye):
    X=              0.0201    Y=             -1.6831    Z=              0.0000  Tot=              1.6832
 Quadrupole moment (field-independent basis, Debye-Ang):
   XX=             -3.5488   YY=             -6.7421   ZZ=             -7.6323
   XY=              0.4415   XZ=              0.0000   YZ=              0.0000
 Traceless Quadrupole moment (field-independent basis, Debye-Ang):
   XX=              2.4256   YY=             -0.7677   ZZ=             -1.6579
   XY=              0.4415   XZ=              0.0000   YZ=              0.0000
 Octapole moment (field-independent basis, Debye-Ang**2):
  XXX=              0.0830  YYY=             -0.9238  ZZZ=              0.0000  XYY=             -0.2220
  XXY=             -1.3422  XXZ=              0.0000  XZZ=              0.0602  YZZ=             -0.2438
  YYZ=              0.0000  XYZ=              0.0000
 Hexadecapole moment (field-independent basis, Debye-Ang**3):
 XXXX=             -5.3533 YYYY=             -7.3715 ZZZZ=             -6.9739 XXXY=              0.1687
 XXXZ=              0.0000 YYYX=             -0.0229 YYYZ=              0.0000 ZZZX=              0.0000
 ZZZY=              0.0000 XXYY=             -2.0758 XXZZ=             -2.5492 YYZZ=             -2.4201
 XXYZ=              0.0000 YYXZ=              0.0000 ZZXY=             -0.0721
 N-N= 9.167522239676D+00 E-N=-1.988705329644D+02  KE= 7.591208224942D+01
 Symmetry A'   KE= 7.148882184622D+01
 Symmetry A"   KE= 4.423260403200D+00
 No NMR shielding tensors so no spin-rotation constants.
 Leave Link  601 at Mon Feb 20 10:15:26 2023, MaxMem=   754974720 cpu:               0.3 elap:               0.1
 (Enter /opt/cluster/programs/g16-c.01/g16/l9999.exe)
 Unable to Open any file for archive entry.
 1\1\GINC-NODE106\SP\RHF\Aug-CC-pVDZ\H2O1\BOITTIER\20-Feb-2023\0\\#P HF
 /aug-cc-pVDZ scf(maxcycle=200)\\Gaussian input\\0,1\O,0,0.,0.11751,0.\
 H,0,0.7183372325,-0.4395112028,0.\H,0,-0.9495937521,-0.2235951244,0.\\
 Version=ES64L-G16RevC.01\State=1-A'\HF=-76.0293375\RMSD=6.512e-09\Dipo
 le=-0.1574545,-0.6432437,0.\Quadrupole=1.8142816,-0.5816891,-1.2325924
 ,-0.2858707,0.,0.\PG=CS [SG(H2O1)]\\@
 The archive entry for this job was punched.


            THE IRISH PIG
 'TWAS AN EVENING IN NOVEMBER,
 AS I VERY WELL REMEMBER
 I WAS STROLLING DOWN THE STREET IN DRUNKEN PRIDE,
 BUT MY KNEES WERE ALL A'FLUTTER
 SO I LANDED IN THE GUTTER,
 AND A PIG CAME UP AND LAY DOWN BY MY SIDE.

 YES, I LAY THERE IN THE GUTTER
 THINKING THOUGHTS I COULD NOT UTTER
 WHEN A COLLEEN PASSING BY DID SOFTLY SAY,
 'YE CAN TELL A MAN THAT BOOZES
 BY THE COMPANY THAT HE CHOOSES.' -
 AT THAT, THE PIG GOT UP AND WALKED AWAY!
     -- THE ECONOMIST, AUGUST 23, 1986
 Job cpu time:       0 days  0 hours  0 minutes  3.2 seconds.
 Elapsed time:       0 days  0 hours  0 minutes  0.9 seconds.
 File lengths (MBytes):  RWF=      6 Int=      0 D2E=      0 Chk=      1 Scr=      1
 Normal termination of Gaussian 16 at Mon Feb 20 10:15:26 2023.
