 Entering Gaussian System, Link 0=/opt/cluster/programs/g16-c.01/g16/g16
 Input=/scratch/boittier/jobs/tmp.7262106/gaussian_163_water_wb97_ptz.com
 Output=/scratch/boittier/jobs/tmp.7262106/gaussian_163_water_wb97_ptz.out
 Initial command:
 /opt/cluster/programs/g16-c.01/g16/l1.exe "/scratch/boittier/jobs/tmp.7262106/Gau-51859.inp" -scrdir="/scratch/boittier/jobs/tmp.7262106/"
 Entering Link 1 = /opt/cluster/programs/g16-c.01/g16/l1.exe PID=     51860.
  
 Copyright (c) 1988-2019, Gaussian, Inc.  All Rights Reserved.
  
 This is part of the Gaussian(R) 16 program.  It is based on
 the Gaussian(R) 09 system (copyright 2009, Gaussian, Inc.),
 the Gaussian(R) 03 system (copyright 2003, Gaussian, Inc.),
 the Gaussian(R) 98 system (copyright 1998, Gaussian, Inc.),
 the Gaussian(R) 94 system (copyright 1995, Gaussian, Inc.),
 the Gaussian 92(TM) system (copyright 1992, Gaussian, Inc.),
 the Gaussian 90(TM) system (copyright 1990, Gaussian, Inc.),
 the Gaussian 88(TM) system (copyright 1988, Gaussian, Inc.),
 the Gaussian 86(TM) system (copyright 1986, Carnegie Mellon
 University), and the Gaussian 82(TM) system (copyright 1983,
 Carnegie Mellon University). Gaussian is a federally registered
 trademark of Gaussian, Inc.
  
 This software contains proprietary and confidential information,
 including trade secrets, belonging to Gaussian, Inc.
  
 This software is provided under written license and may be
 used, copied, transmitted, or stored only in accord with that
 written license.
  
 The following legend is applicable only to US Government
 contracts under FAR:
  
                    RESTRICTED RIGHTS LEGEND
  
 Use, reproduction and disclosure by the US Government is
 subject to restrictions as set forth in subparagraphs (a)
 and (c) of the Commercial Computer Software - Restricted
 Rights clause in FAR 52.227-19.
  
 Gaussian, Inc.
 340 Quinnipiac St., Bldg. 40, Wallingford CT 06492
  
  
 ---------------------------------------------------------------
 Warning -- This program may not be used in any manner that
 competes with the business of Gaussian, Inc. or will provide
 assistance to any competitor of Gaussian, Inc.  The licensee
 of this program is prohibited from giving any competitor of
 Gaussian, Inc. access to this program.  By using this program,
 the user acknowledges that Gaussian, Inc. is engaged in the
 business of creating and licensing software in the field of
 computational chemistry and represents and warrants to the
 licensee that it is not a competitor of Gaussian, Inc. and that
 it will not use this program in any manner prohibited above.
 ---------------------------------------------------------------
  

 Cite this work as:
 Gaussian 16, Revision C.01,
 M. J. Frisch, G. W. Trucks, H. B. Schlegel, G. E. Scuseria, 
 M. A. Robb, J. R. Cheeseman, G. Scalmani, V. Barone, 
 G. A. Petersson, H. Nakatsuji, X. Li, M. Caricato, A. V. Marenich, 
 J. Bloino, B. G. Janesko, R. Gomperts, B. Mennucci, H. P. Hratchian, 
 J. V. Ortiz, A. F. Izmaylov, J. L. Sonnenberg, D. Williams-Young, 
 F. Ding, F. Lipparini, F. Egidi, J. Goings, B. Peng, A. Petrone, 
 T. Henderson, D. Ranasinghe, V. G. Zakrzewski, J. Gao, N. Rega, 
 G. Zheng, W. Liang, M. Hada, M. Ehara, K. Toyota, R. Fukuda, 
 J. Hasegawa, M. Ishida, T. Nakajima, Y. Honda, O. Kitao, H. Nakai, 
 T. Vreven, K. Throssell, J. A. Montgomery, Jr., J. E. Peralta, 
 F. Ogliaro, M. J. Bearpark, J. J. Heyd, E. N. Brothers, K. N. Kudin, 
 V. N. Staroverov, T. A. Keith, R. Kobayashi, J. Normand, 
 K. Raghavachari, A. P. Rendell, J. C. Burant, S. S. Iyengar, 
 J. Tomasi, M. Cossi, J. M. Millam, M. Klene, C. Adamo, R. Cammi, 
 J. W. Ochterski, R. L. Martin, K. Morokuma, O. Farkas, 
 J. B. Foresman, and D. J. Fox, Gaussian, Inc., Wallingford CT, 2019.
 
 ******************************************
 Gaussian 16:  ES64L-G16RevC.01  3-Jul-2019
                 8-Feb-2023 
 ******************************************
 %nproc=4
 Will use up to    4 processors via shared memory.
 %mem=5760MB
 %chk=gaussian_163_water_wb97_ptz.chk
 ------------------------------------
 #P wB97XD/6-311g** scf(maxcycle=200)
 ------------------------------------
 1/38=1,172=1/1;
 2/12=2,17=6,18=5,40=1/2;
 3/5=4,6=6,7=101,11=2,25=1,30=1,74=-58/1,2,3;
 4//1;
 5/5=2,7=200,38=5/2;
 6/7=2,8=2,9=2,10=2,28=1/1;
 99/5=1,9=1/99;
 Leave Link    1 at Wed Feb  8 14:42:47 2023, MaxMem=   754974720 cpu:               0.3 elap:               0.1
 (Enter /opt/cluster/programs/g16-c.01/g16/l101.exe)
 --------------
 Gaussian input
 --------------
 Symbolic Z-matrix:
 Charge =  0 Multiplicity = 1
 O                     0.        0.11751   0. 
 H                     0.79736  -0.50079   0. 
 H                    -0.62454  -0.67497   0. 
 
 ITRead=  0  0  0
 MicOpt= -1 -1 -1
 NAtoms=      3 NQM=        3 NQMF=       0 NMMI=      0 NMMIF=      0
                NMic=       0 NMicF=      0.
                    Isotopes and Nuclear Properties:
 (Nuclear quadrupole moments (NQMom) in fm**2, nuclear magnetic moments (NMagM)
  in nuclear magnetons)

  Atom         1           2           3
 IAtWgt=          16           1           1
 AtmWgt=  15.9949146   1.0078250   1.0078250
 NucSpn=           0           1           1
 AtZEff=  -0.0000000  -0.0000000  -0.0000000
 NQMom=    0.0000000   0.0000000   0.0000000
 NMagM=    0.0000000   2.7928460   2.7928460
 AtZNuc=   8.0000000   1.0000000   1.0000000
 Leave Link  101 at Wed Feb  8 14:42:47 2023, MaxMem=   754974720 cpu:               0.7 elap:               0.2
 (Enter /opt/cluster/programs/g16-c.01/g16/l202.exe)
                          Input orientation:                          
 ---------------------------------------------------------------------
 Center     Atomic      Atomic             Coordinates (Angstroms)
 Number     Number       Type             X           Y           Z
 ---------------------------------------------------------------------
      1          8           0        0.000000    0.117510    0.000000
      2          1           0        0.797362   -0.500790    0.000000
      3          1           0       -0.624543   -0.674972    0.000000
 ---------------------------------------------------------------------
                    Distance matrix (angstroms):
                    1          2          3
     1  O    0.000000
     2  H    1.009000   0.000000
     3  H    1.009000   1.432534   0.000000
 Stoichiometry    H2O
 Framework group  C2V[C2(O),SGV(H2)]
 Deg. of freedom     2
 Full point group                 C2V     NOp   4
 Largest Abelian subgroup         C2V     NOp   4
 Largest concise Abelian subgroup C2      NOp   2
                         Standard orientation:                         
 ---------------------------------------------------------------------
 Center     Atomic      Atomic             Coordinates (Angstroms)
 Number     Number       Type             X           Y           Z
 ---------------------------------------------------------------------
      1          8           0       -0.000000    0.000000    0.142133
      2          1           0        0.000000    0.716267   -0.568531
      3          1           0       -0.000000   -0.716267   -0.568531
 ---------------------------------------------------------------------
 Rotational constants (GHZ):         559.0098987         488.7110322         260.7510231
 Leave Link  202 at Wed Feb  8 14:42:48 2023, MaxMem=   754974720 cpu:               0.2 elap:               0.1
 (Enter /opt/cluster/programs/g16-c.01/g16/l301.exe)
 Standard basis: 6-311G(d,p) (5D, 7F)
 Ernie: Thresh=  0.10000D-02 Tol=  0.10000D-05 Strict=F.
 There are    15 symmetry adapted cartesian basis functions of A1  symmetry.
 There are     2 symmetry adapted cartesian basis functions of A2  symmetry.
 There are     5 symmetry adapted cartesian basis functions of B1  symmetry.
 There are     9 symmetry adapted cartesian basis functions of B2  symmetry.
 There are    14 symmetry adapted basis functions of A1  symmetry.
 There are     2 symmetry adapted basis functions of A2  symmetry.
 There are     5 symmetry adapted basis functions of B1  symmetry.
 There are     9 symmetry adapted basis functions of B2  symmetry.
    30 basis functions,    48 primitive gaussians,    31 cartesian basis functions
     5 alpha electrons        5 beta electrons
       nuclear repulsion energy         8.7607129465 Hartrees.
 IExCor= 4639 DFT=T Ex+Corr=wB97XD ExCW=0 ScaHFX=  1.000000
 ScaDFX=  1.000000  1.000000  1.000000  1.000000 ScalE2=  1.000000  1.000000
 IRadAn=      5 IRanWt=     -1 IRanGd=            0 ICorTp=0 IEmpDi=121
 HFx  wShort=  0.000000 wLong=  0.200000 cFull=  0.222036 cShort=  0.000000 cLong=  0.777964
 DFx  wShort=  0.000000 wLong=  0.200000 cFull=  0.000000 cShort=  0.000000 cLong=  1.000000
 NAtoms=    3 NActive=    3 NUniq=    2 SFac= 2.25D+00 NAtFMM=   60 NAOKFM=F Big=F
 Integral buffers will be    131072 words long.
 Raffenetti 2 integral format.
 Two-electron integral symmetry is turned on.
 R6Disp:  Grimme-D2 Dispersion energy=       -0.0000200048 Hartrees.
 Nuclear repulsion after empirical dispersion term =        8.7606929418 Hartrees.
 Leave Link  301 at Wed Feb  8 14:42:48 2023, MaxMem=   754974720 cpu:               0.1 elap:               0.0
 (Enter /opt/cluster/programs/g16-c.01/g16/l302.exe)
 NPDir=0 NMtPBC=     1 NCelOv=     1 NCel=       1 NClECP=     1 NCelD=      1
         NCelK=      1 NCelE2=     1 NClLst=     1 CellRange=     0.0.
 One-electron integrals computed using PRISM.
 One-electron integral symmetry used in STVInt
 NBasis=    30 RedAO= T EigKep=  2.09D-02  NBF=    14     2     5     9
 NBsUse=    30 1.00D-06 EigRej= -1.00D+00 NBFU=    14     2     5     9
 Precomputing XC quadrature grid using
 IXCGrd= 4 IRadAn=           5 IRanWt=          -1 IRanGd=           0 AccXCQ= 0.00D+00.
 Generated NRdTot=       0 NPtTot=           0 NUsed=           0 NTot=          32
 NSgBfM=    31    31    31    31    31 MxSgAt=     3 MxSgA2=     3.
 Leave Link  302 at Wed Feb  8 14:42:48 2023, MaxMem=   754974720 cpu:               1.3 elap:               0.5
 (Enter /opt/cluster/programs/g16-c.01/g16/l303.exe)
 DipDrv:  MaxL=1.
 Leave Link  303 at Wed Feb  8 14:42:48 2023, MaxMem=   754974720 cpu:               0.2 elap:               0.1
 (Enter /opt/cluster/programs/g16-c.01/g16/l401.exe)
 ExpMin= 1.03D-01 ExpMax= 8.59D+03 ExpMxC= 1.30D+03 IAcc=3 IRadAn=         5 AccDes= 0.00D+00
 Harris functional with IExCor= 4639 and IRadAn=       5 diagonalized for initial guess.
 HarFok:  IExCor= 4639 AccDes= 0.00D+00 IRadAn=         5 IDoV= 1 UseB2=F ITyADJ=14
 ICtDFT=  3500011 ScaDFX=  1.000000  1.000000  1.000000  1.000000
 FoFCou: FMM=F IPFlag=           0 FMFlag=      100000 FMFlg1=           0
         NFxFlg=           0 DoJE=T BraDBF=F KetDBF=T FulRan=T
         wScrn=  0.000000 ICntrl=       500 IOpCl=  0 I1Cent=   200000004 NGrid=           0
         NMat0=    1 NMatS0=      1 NMatT0=    0 NMatD0=    1 NMtDS0=    0 NMtDT0=    0
 Petite list used in FoFCou.
 Harris En= -73.6146581560006    
 JPrj=0 DoOrth=F DoCkMO=F.
 Initial guess orbital symmetries:
       Occupied  (A1) (A1) (B2) (A1) (B1)
       Virtual   (A1) (B2) (B2) (A1) (B1) (A1) (B2) (A1) (A1) (A2)
                 (B1) (B2) (B2) (A1) (A1) (B2) (A2) (B1) (A1) (A1)
                 (B2) (B1) (A1) (B2) (A1)
 The electronic state of the initial guess is 1-A1.
 Leave Link  401 at Wed Feb  8 14:42:48 2023, MaxMem=   754974720 cpu:               0.8 elap:               0.2
 (Enter /opt/cluster/programs/g16-c.01/g16/l502.exe)
 Keep R1 ints in memory in symmetry-blocked form, NReq=3688799.
 FoFCou: FMM=F IPFlag=           0 FMFlag=           0 FMFlg1=           0
         NFxFlg=           0 DoJE=F BraDBF=F KetDBF=F FulRan=T
         wScrn=  0.000000 ICntrl=       600 IOpCl=  0 I1Cent=           0 NGrid=           0
         NMat0=    1 NMatS0=    465 NMatT0=    0 NMatD0=    1 NMtDS0=    0 NMtDT0=    0
 Petite list used in FoFCou.
 Closed shell SCF:
 Using DIIS extrapolation, IDIIS=  1040.
 NGot=   754974720 LenX=   754939916 LenY=   754938514
 Requested convergence on RMS density matrix=1.00D-08 within 200 cycles.
 Requested convergence on MAX density matrix=1.00D-06.
 Requested convergence on             energy=1.00D-06.
 No special actions if energy rises.
 Integral accuracy reduced to 1.0D-05 until final iterations.

 Cycle   1  Pass 0  IDiag  1:
 E= -76.4033760856947    
 DIIS: error= 8.08D-02 at cycle   1 NSaved=   1.
 NSaved= 1 IEnMin= 1 EnMin= -76.4033760856947     IErMin= 1 ErrMin= 8.08D-02
 ErrMax= 8.08D-02  0.00D+00 EMaxC= 1.00D-01 BMatC= 1.33D-01 BMatP= 1.33D-01
 IDIUse=3 WtCom= 1.92D-01 WtEn= 8.08D-01
 Coeff-Com:  0.100D+01
 Coeff-En:   0.100D+01
 Coeff:      0.100D+01
 Gap=     0.487 Goal=   None    Shift=    0.000
 GapD=    0.487 DampG=2.000 DampE=0.500 DampFc=1.0000 IDamp=-1.
 RMSDP=3.35D-03 MaxDP=3.36D-02              OVMax= 3.76D-02

 Cycle   2  Pass 0  IDiag  1:
 E= -76.4148998166867     Delta-E=       -0.011523730992 Rises=F Damp=F
 DIIS: error= 5.79D-03 at cycle   2 NSaved=   2.
 NSaved= 2 IEnMin= 2 EnMin= -76.4148998166867     IErMin= 2 ErrMin= 5.79D-03
 ErrMax= 5.79D-03  0.00D+00 EMaxC= 1.00D-01 BMatC= 9.55D-04 BMatP= 1.33D-01
 IDIUse=3 WtCom= 9.42D-01 WtEn= 5.79D-02
 Coeff-Com:  0.570D-01 0.943D+00
 Coeff-En:   0.000D+00 0.100D+01
 Coeff:      0.537D-01 0.946D+00
 Gap=     0.487 Goal=   None    Shift=    0.000
 RMSDP=3.95D-04 MaxDP=4.38D-03 DE=-1.15D-02 OVMax= 6.41D-03

 Cycle   3  Pass 0  IDiag  1:
 E= -76.4151986430577     Delta-E=       -0.000298826371 Rises=F Damp=F
 DIIS: error= 2.77D-03 at cycle   3 NSaved=   3.
 NSaved= 3 IEnMin= 3 EnMin= -76.4151986430577     IErMin= 3 ErrMin= 2.77D-03
 ErrMax= 2.77D-03  0.00D+00 EMaxC= 1.00D-01 BMatC= 1.52D-04 BMatP= 9.55D-04
 IDIUse=3 WtCom= 9.72D-01 WtEn= 2.77D-02
 Coeff-Com:  0.125D-01 0.314D+00 0.674D+00
 Coeff-En:   0.000D+00 0.000D+00 0.100D+01
 Coeff:      0.121D-01 0.305D+00 0.683D+00
 Gap=     0.493 Goal=   None    Shift=    0.000
 RMSDP=2.47D-04 MaxDP=3.30D-03 DE=-2.99D-04 OVMax= 3.44D-03

 Cycle   4  Pass 0  IDiag  1:
 E= -76.4152740151040     Delta-E=       -0.000075372046 Rises=F Damp=F
 DIIS: error= 1.14D-03 at cycle   4 NSaved=   4.
 NSaved= 4 IEnMin= 4 EnMin= -76.4152740151040     IErMin= 4 ErrMin= 1.14D-03
 ErrMax= 1.14D-03  0.00D+00 EMaxC= 1.00D-01 BMatC= 2.48D-05 BMatP= 1.52D-04
 IDIUse=3 WtCom= 9.89D-01 WtEn= 1.14D-02
 Coeff-Com:  0.241D-02 0.647D-01 0.316D+00 0.617D+00
 Coeff-En:   0.000D+00 0.000D+00 0.718D-01 0.928D+00
 Coeff:      0.238D-02 0.640D-01 0.313D+00 0.621D+00
 Gap=     0.491 Goal=   None    Shift=    0.000
 RMSDP=8.98D-05 MaxDP=1.23D-03 DE=-7.54D-05 OVMax= 1.29D-03

 Cycle   5  Pass 0  IDiag  1:
 E= -76.4152902018390     Delta-E=       -0.000016186735 Rises=F Damp=F
 DIIS: error= 1.16D-04 at cycle   5 NSaved=   5.
 NSaved= 5 IEnMin= 5 EnMin= -76.4152902018390     IErMin= 5 ErrMin= 1.16D-04
 ErrMax= 1.16D-04  0.00D+00 EMaxC= 1.00D-01 BMatC= 1.99D-07 BMatP= 2.48D-05
 IDIUse=3 WtCom= 9.99D-01 WtEn= 1.16D-03
 Coeff-Com: -0.748D-03-0.184D-01-0.381D-01 0.237D-01 0.103D+01
 Coeff-En:   0.000D+00 0.000D+00 0.000D+00 0.000D+00 0.100D+01
 Coeff:     -0.747D-03-0.184D-01-0.381D-01 0.237D-01 0.103D+01
 Gap=     0.491 Goal=   None    Shift=    0.000
 RMSDP=1.38D-05 MaxDP=1.35D-04 DE=-1.62D-05 OVMax= 2.08D-04

 Cycle   6  Pass 0  IDiag  1:
 E= -76.4152904047102     Delta-E=       -0.000000202871 Rises=F Damp=F
 DIIS: error= 1.29D-05 at cycle   6 NSaved=   6.
 NSaved= 6 IEnMin= 6 EnMin= -76.4152904047102     IErMin= 6 ErrMin= 1.29D-05
 ErrMax= 1.29D-05  0.00D+00 EMaxC= 1.00D-01 BMatC= 2.99D-09 BMatP= 1.99D-07
 IDIUse=1 WtCom= 1.00D+00 WtEn= 0.00D+00
 Coeff-Com:  0.119D-03 0.252D-02 0.304D-02-0.323D-02-0.214D+00 0.121D+01
 Coeff:      0.119D-03 0.252D-02 0.304D-02-0.323D-02-0.214D+00 0.121D+01
 Gap=     0.491 Goal=   None    Shift=    0.000
 RMSDP=3.11D-06 MaxDP=3.08D-05 DE=-2.03D-07 OVMax= 5.95D-05

 Initial convergence to 1.0D-05 achieved.  Increase integral accuracy.
 Cycle   7  Pass 1  IDiag  1:
 E= -76.4152881944184     Delta-E=        0.000002210292 Rises=F Damp=F
 DIIS: error= 3.84D-06 at cycle   1 NSaved=   1.
 NSaved= 1 IEnMin= 1 EnMin= -76.4152881944184     IErMin= 1 ErrMin= 3.84D-06
 ErrMax= 3.84D-06  0.00D+00 EMaxC= 1.00D-01 BMatC= 4.03D-10 BMatP= 4.03D-10
 IDIUse=1 WtCom= 1.00D+00 WtEn= 0.00D+00
 Coeff-Com:  0.100D+01
 Coeff:      0.100D+01
 Gap=     0.491 Goal=   None    Shift=    0.000
 RMSDP=3.11D-06 MaxDP=3.08D-05 DE= 2.21D-06 OVMax= 1.10D-05

 Cycle   8  Pass 1  IDiag  1:
 E= -76.4152881949246     Delta-E=       -0.000000000506 Rises=F Damp=F
 DIIS: error= 7.57D-07 at cycle   2 NSaved=   2.
 NSaved= 2 IEnMin= 2 EnMin= -76.4152881949246     IErMin= 2 ErrMin= 7.57D-07
 ErrMax= 7.57D-07  0.00D+00 EMaxC= 1.00D-01 BMatC= 1.24D-11 BMatP= 4.03D-10
 IDIUse=1 WtCom= 1.00D+00 WtEn= 0.00D+00
 Coeff-Com: -0.144D+00 0.114D+01
 Coeff:     -0.144D+00 0.114D+01
 Gap=     0.491 Goal=   None    Shift=    0.000
 RMSDP=2.10D-07 MaxDP=1.63D-06 DE=-5.06D-10 OVMax= 3.61D-06

 Cycle   9  Pass 1  IDiag  1:
 E= -76.4152881949551     Delta-E=       -0.000000000030 Rises=F Damp=F
 DIIS: error= 2.44D-07 at cycle   3 NSaved=   3.
 NSaved= 3 IEnMin= 3 EnMin= -76.4152881949551     IErMin= 3 ErrMin= 2.44D-07
 ErrMax= 2.44D-07  0.00D+00 EMaxC= 1.00D-01 BMatC= 2.58D-12 BMatP= 1.24D-11
 IDIUse=1 WtCom= 1.00D+00 WtEn= 0.00D+00
 Coeff-Com: -0.595D-01 0.381D+00 0.678D+00
 Coeff:     -0.595D-01 0.381D+00 0.678D+00
 Gap=     0.491 Goal=   None    Shift=    0.000
 RMSDP=5.13D-08 MaxDP=7.73D-07 DE=-3.04D-11 OVMax= 9.79D-07

 Cycle  10  Pass 1  IDiag  1:
 E= -76.4152881949576     Delta-E=       -0.000000000003 Rises=F Damp=F
 DIIS: error= 2.15D-07 at cycle   4 NSaved=   4.
 NSaved= 4 IEnMin= 4 EnMin= -76.4152881949576     IErMin= 4 ErrMin= 2.15D-07
 ErrMax= 2.15D-07  0.00D+00 EMaxC= 1.00D-01 BMatC= 5.54D-13 BMatP= 2.58D-12
 IDIUse=1 WtCom= 1.00D+00 WtEn= 0.00D+00
 Coeff-Com:  0.221D-01-0.210D+00 0.246D+00 0.942D+00
 Coeff:      0.221D-01-0.210D+00 0.246D+00 0.942D+00
 Gap=     0.491 Goal=   None    Shift=    0.000
 RMSDP=3.05D-08 MaxDP=2.17D-07 DE=-2.52D-12 OVMax= 5.71D-07

 Cycle  11  Pass 1  IDiag  1:
 E= -76.4152881949583     Delta-E=       -0.000000000001 Rises=F Damp=F
 DIIS: error= 1.00D-08 at cycle   5 NSaved=   5.
 NSaved= 5 IEnMin= 5 EnMin= -76.4152881949583     IErMin= 5 ErrMin= 1.00D-08
 ErrMax= 1.00D-08  0.00D+00 EMaxC= 1.00D-01 BMatC= 2.65D-15 BMatP= 5.54D-13
 IDIUse=1 WtCom= 1.00D+00 WtEn= 0.00D+00
 Coeff-Com:  0.134D-02-0.697D-02-0.186D-01-0.454D-01 0.107D+01
 Coeff:      0.134D-02-0.697D-02-0.186D-01-0.454D-01 0.107D+01
 Gap=     0.491 Goal=   None    Shift=    0.000
 RMSDP=3.77D-09 MaxDP=3.49D-08 DE=-7.39D-13 OVMax= 8.46D-08

 SCF Done:  E(RwB97XD) =  -76.4152881950     A.U. after   11 cycles
            NFock= 11  Conv=0.38D-08     -V/T= 2.0034
 KE= 7.615330031471D+01 PE=-1.985626112895D+02 EE= 3.723332983805D+01
 Leave Link  502 at Wed Feb  8 14:42:54 2023, MaxMem=   754974720 cpu:              11.0 elap:               5.6
 (Enter /opt/cluster/programs/g16-c.01/g16/l601.exe)
 Copying SCF densities to generalized density rwf, IOpCl= 0 IROHF=0.

 **********************************************************************

            Population analysis using the SCF Density.

 **********************************************************************

 Orbital symmetries:
       Occupied  (A1) (A1) (B2) (A1) (B1)
       Virtual   (A1) (B2) (B2) (A1) (B1) (A1) (B2) (A1) (A1) (A2)
                 (B1) (B2) (B2) (A1) (A1) (B2) (A2) (B1) (A1) (A1)
                 (B2) (B1) (A1) (B2) (A1)
 The electronic state is 1-A1.
 Alpha  occ. eigenvalues --  -19.24117  -1.09316  -0.56648  -0.48735  -0.38685
 Alpha virt. eigenvalues --    0.10433   0.17983   0.42498   0.50341   0.85286
 Alpha virt. eigenvalues --    0.86280   0.95243   1.16118   1.17962   1.39115
 Alpha virt. eigenvalues --    1.46178   1.79823   1.91636   2.10619   2.38073
 Alpha virt. eigenvalues --    2.64118   3.15903   3.20817   3.30647   3.61818
 Alpha virt. eigenvalues --    3.91649   4.87006   5.32216   5.48018  49.92042
          Condensed to atoms (all electrons):
               1          2          3
     1  O    7.871738   0.286127   0.286127
     2  H    0.286127   0.525498  -0.033621
     3  H    0.286127  -0.033621   0.525498
 Mulliken charges:
               1
     1  O   -0.443992
     2  H    0.221996
     3  H    0.221996
 Sum of Mulliken charges =  -0.00000
 Mulliken charges with hydrogens summed into heavy atoms:
               1
     1  O   -0.000000
 Electronic spatial extent (au):  <R**2>=             19.7120
 Charge=              0.0000 electrons
 Dipole moment (field-independent basis, Debye):
    X=             -0.0000    Y=              0.0000    Z=             -2.2892  Tot=              2.2892
 Quadrupole moment (field-independent basis, Debye-Ang):
   XX=             -7.2662   YY=             -4.7894   ZZ=             -5.6480
   XY=              0.0000   XZ=              0.0000   YZ=              0.0000
 Traceless Quadrupole moment (field-independent basis, Debye-Ang):
   XX=             -1.3650   YY=              1.1118   ZZ=              0.2532
   XY=              0.0000   XZ=              0.0000   YZ=              0.0000
 Octapole moment (field-independent basis, Debye-Ang**2):
  XXX=              0.0000  YYY=             -0.0000  ZZZ=             -1.4387  XYY=             -0.0000
  XXY=             -0.0000  XXZ=             -0.3275  XZZ=             -0.0000  YZZ=              0.0000
  YYZ=             -1.2560  XYZ=             -0.0000
 Hexadecapole moment (field-independent basis, Debye-Ang**3):
 XXXX=             -5.3513 YYYY=             -6.6352 ZZZZ=             -6.7972 XXXY=             -0.0000
 XXXZ=             -0.0000 YYYX=             -0.0000 YYYZ=              0.0000 ZZZX=             -0.0000
 ZZZY=              0.0000 XXYY=             -2.2048 XXZZ=             -2.1337 YYZZ=             -1.7244
 XXYZ=              0.0000 YYXZ=              0.0000 ZZXY=              0.0000
 N-N= 8.760692941756D+00 E-N=-1.985626112754D+02  KE= 7.615330031471D+01
 Symmetry A1   KE= 6.789838295259D+01
 Symmetry A2   KE= 1.108802399194D-35
 Symmetry B1   KE= 4.661057559568D+00
 Symmetry B2   KE= 3.593859802553D+00
 No NMR shielding tensors so no spin-rotation constants.
 Leave Link  601 at Wed Feb  8 14:42:54 2023, MaxMem=   754974720 cpu:               1.1 elap:               0.4
 (Enter /opt/cluster/programs/g16-c.01/g16/l9999.exe)
 Unable to Open any file for archive entry.
 1\1\GINC-NODE63\SP\RwB97XD\6-311G(d,p)\H2O1\BOITTIER\08-Feb-2023\0\\#P
  wB97XD/6-311g** scf(maxcycle=200)\\Gaussian input\\0,1\O,0,0.,0.11751
 ,0.\H,0,0.7973622306,-0.5007896629,0.\H,0,-0.624542997,-0.6749715738,0
 .\\Version=ES64L-G16RevC.01\State=1-A1\HF=-76.4152882\RMSD=3.775e-09\D
 ipole=0.1095078,-0.8939488,0.\Quadrupole=0.8171426,0.1976781,-1.014820
 7,0.0770398,0.,0.\PG=C02V [C2(O1),SGV(H2)]\\@
 The archive entry for this job was punched.


 MY DESCRIPTION OF EXPERIENCE IS NOT WHAT HAPPENS
 TO A MAN.  EXPERIENCE IS WHAT A MAN DOES WITH WHAT
 HAPPENS TO HIM.
                         - CHUCK KNOX, SEATTLE SEAHAWKS, 1985
 Job cpu time:       0 days  0 hours  0 minutes 15.9 seconds.
 Elapsed time:       0 days  0 hours  0 minutes  7.2 seconds.
 File lengths (MBytes):  RWF=      6 Int=      0 D2E=      0 Chk=      1 Scr=      1
 Normal termination of Gaussian 16 at Wed Feb  8 14:42:54 2023.
