 Entering Gaussian System, Link 0=/opt/cluster/programs/g16-c.01/g16/g16
 Input=/scratch/boittier/jobs/tmp.7262380/gaussian_160_water_ccsdt_adz.com
 Output=/scratch/boittier/jobs/tmp.7262380/gaussian_160_water_ccsdt_adz.out
 Initial command:
 /opt/cluster/programs/g16-c.01/g16/l1.exe "/scratch/boittier/jobs/tmp.7262380/Gau-105683.inp" -scrdir="/scratch/boittier/jobs/tmp.7262380/"
 Entering Link 1 = /opt/cluster/programs/g16-c.01/g16/l1.exe PID=    105684.
  
 Copyright (c) 1988-2019, Gaussian, Inc.  All Rights Reserved.
  
 This is part of the Gaussian(R) 16 program.  It is based on
 the Gaussian(R) 09 system (copyright 2009, Gaussian, Inc.),
 the Gaussian(R) 03 system (copyright 2003, Gaussian, Inc.),
 the Gaussian(R) 98 system (copyright 1998, Gaussian, Inc.),
 the Gaussian(R) 94 system (copyright 1995, Gaussian, Inc.),
 the Gaussian 92(TM) system (copyright 1992, Gaussian, Inc.),
 the Gaussian 90(TM) system (copyright 1990, Gaussian, Inc.),
 the Gaussian 88(TM) system (copyright 1988, Gaussian, Inc.),
 the Gaussian 86(TM) system (copyright 1986, Carnegie Mellon
 University), and the Gaussian 82(TM) system (copyright 1983,
 Carnegie Mellon University). Gaussian is a federally registered
 trademark of Gaussian, Inc.
  
 This software contains proprietary and confidential information,
 including trade secrets, belonging to Gaussian, Inc.
  
 This software is provided under written license and may be
 used, copied, transmitted, or stored only in accord with that
 written license.
  
 The following legend is applicable only to US Government
 contracts under FAR:
  
                    RESTRICTED RIGHTS LEGEND
  
 Use, reproduction and disclosure by the US Government is
 subject to restrictions as set forth in subparagraphs (a)
 and (c) of the Commercial Computer Software - Restricted
 Rights clause in FAR 52.227-19.
  
 Gaussian, Inc.
 340 Quinnipiac St., Bldg. 40, Wallingford CT 06492
  
  
 ---------------------------------------------------------------
 Warning -- This program may not be used in any manner that
 competes with the business of Gaussian, Inc. or will provide
 assistance to any competitor of Gaussian, Inc.  The licensee
 of this program is prohibited from giving any competitor of
 Gaussian, Inc. access to this program.  By using this program,
 the user acknowledges that Gaussian, Inc. is engaged in the
 business of creating and licensing software in the field of
 computational chemistry and represents and warrants to the
 licensee that it is not a competitor of Gaussian, Inc. and that
 it will not use this program in any manner prohibited above.
 ---------------------------------------------------------------
  

 Cite this work as:
 Gaussian 16, Revision C.01,
 M. J. Frisch, G. W. Trucks, H. B. Schlegel, G. E. Scuseria, 
 M. A. Robb, J. R. Cheeseman, G. Scalmani, V. Barone, 
 G. A. Petersson, H. Nakatsuji, X. Li, M. Caricato, A. V. Marenich, 
 J. Bloino, B. G. Janesko, R. Gomperts, B. Mennucci, H. P. Hratchian, 
 J. V. Ortiz, A. F. Izmaylov, J. L. Sonnenberg, D. Williams-Young, 
 F. Ding, F. Lipparini, F. Egidi, J. Goings, B. Peng, A. Petrone, 
 T. Henderson, D. Ranasinghe, V. G. Zakrzewski, J. Gao, N. Rega, 
 G. Zheng, W. Liang, M. Hada, M. Ehara, K. Toyota, R. Fukuda, 
 J. Hasegawa, M. Ishida, T. Nakajima, Y. Honda, O. Kitao, H. Nakai, 
 T. Vreven, K. Throssell, J. A. Montgomery, Jr., J. E. Peralta, 
 F. Ogliaro, M. J. Bearpark, J. J. Heyd, E. N. Brothers, K. N. Kudin, 
 V. N. Staroverov, T. A. Keith, R. Kobayashi, J. Normand, 
 K. Raghavachari, A. P. Rendell, J. C. Burant, S. S. Iyengar, 
 J. Tomasi, M. Cossi, J. M. Millam, M. Klene, C. Adamo, R. Cammi, 
 J. W. Ochterski, R. L. Martin, K. Morokuma, O. Farkas, 
 J. B. Foresman, and D. J. Fox, Gaussian, Inc., Wallingford CT, 2019.
 
 ******************************************
 Gaussian 16:  ES64L-G16RevC.01  3-Jul-2019
                 8-Feb-2023 
 ******************************************
 %nproc=4
 Will use up to    4 processors via shared memory.
 %mem=5760MB
 %chk=gaussian_160_water_ccsdt_adz.chk
 ----------------------------------------
 #P CCSD(T)/aug-cc-pVDZ scf(maxcycle=200)
 ----------------------------------------
 1/38=1,172=1/1;
 2/12=2,17=6,18=5,40=1/2;
 3/5=16,7=10,11=9,25=1,30=1/1,2,3;
 4//1;
 5/5=2,7=200,38=5/2;
 8/6=4,9=120000,10=1/1,4;
 9/5=7,14=2/13;
 6/7=2,8=2,9=2,10=2/1;
 99/5=1,9=1/99;
 Leave Link    1 at Wed Feb  8 14:50:59 2023, MaxMem=   754974720 cpu:               0.1 elap:               0.0
 (Enter /opt/cluster/programs/g16-c.01/g16/l101.exe)
 --------------
 Gaussian input
 --------------
 Symbolic Z-matrix:
 Charge =  0 Multiplicity = 1
 O                     0.        0.11751   0. 
 H                     0.79736  -0.50079   0. 
 H                    -0.53828  -0.73591   0. 
 
 ITRead=  0  0  0
 MicOpt= -1 -1 -1
 NAtoms=      3 NQM=        3 NQMF=       0 NMMI=      0 NMMIF=      0
                NMic=       0 NMicF=      0.
                    Isotopes and Nuclear Properties:
 (Nuclear quadrupole moments (NQMom) in fm**2, nuclear magnetic moments (NMagM)
  in nuclear magnetons)

  Atom         1           2           3
 IAtWgt=          16           1           1
 AtmWgt=  15.9949146   1.0078250   1.0078250
 NucSpn=           0           1           1
 AtZEff=  -0.0000000  -0.0000000  -0.0000000
 NQMom=    0.0000000   0.0000000   0.0000000
 NMagM=    0.0000000   2.7928460   2.7928460
 AtZNuc=   8.0000000   1.0000000   1.0000000
 Leave Link  101 at Wed Feb  8 14:50:59 2023, MaxMem=   754974720 cpu:               0.4 elap:               0.2
 (Enter /opt/cluster/programs/g16-c.01/g16/l202.exe)
                          Input orientation:                          
 ---------------------------------------------------------------------
 Center     Atomic      Atomic             Coordinates (Angstroms)
 Number     Number       Type             X           Y           Z
 ---------------------------------------------------------------------
      1          8           0        0.000000    0.117510    0.000000
      2          1           0        0.797362   -0.500790    0.000000
      3          1           0       -0.538285   -0.735913    0.000000
 ---------------------------------------------------------------------
                    Distance matrix (angstroms):
                    1          2          3
     1  O    0.000000
     2  H    1.009000   0.000000
     3  H    1.009000   1.356184   0.000000
 Stoichiometry    H2O
 Framework group  C2V[C2(O),SGV(H2)]
 Deg. of freedom     2
 Full point group                 C2V     NOp   4
 Largest Abelian subgroup         C2V     NOp   4
 Largest concise Abelian subgroup C2      NOp   2
                         Standard orientation:                         
 ---------------------------------------------------------------------
 Center     Atomic      Atomic             Coordinates (Angstroms)
 Number     Number       Type             X           Y           Z
 ---------------------------------------------------------------------
      1          8           0       -0.000000   -0.000000    0.149435
      2          1           0        0.000000    0.678092   -0.597741
      3          1           0       -0.000000   -0.678092   -0.597741
 ---------------------------------------------------------------------
 Rotational constants (GHZ):         545.2863413         505.7100637         262.3765306
 Leave Link  202 at Wed Feb  8 14:50:59 2023, MaxMem=   754974720 cpu:               0.3 elap:               0.1
 (Enter /opt/cluster/programs/g16-c.01/g16/l301.exe)
 Standard basis: Aug-CC-pVDZ (5D, 7F)
 Ernie: Thresh=  0.10000D-02 Tol=  0.10000D-05 Strict=F.
 Ernie:  2 primitive shells out of 39 were deleted.
 There are    20 symmetry adapted cartesian basis functions of A1  symmetry.
 There are     4 symmetry adapted cartesian basis functions of A2  symmetry.
 There are     7 symmetry adapted cartesian basis functions of B1  symmetry.
 There are    12 symmetry adapted cartesian basis functions of B2  symmetry.
 There are    18 symmetry adapted basis functions of A1  symmetry.
 There are     4 symmetry adapted basis functions of A2  symmetry.
 There are     7 symmetry adapted basis functions of B1  symmetry.
 There are    12 symmetry adapted basis functions of B2  symmetry.
    41 basis functions,    65 primitive gaussians,    43 cartesian basis functions
     5 alpha electrons        5 beta electrons
       nuclear repulsion energy         8.7815091966 Hartrees.
 IExCor=    0 DFT=F Ex=HF Corr=None ExCW=0 ScaHFX=  1.000000
 ScaDFX=  1.000000  1.000000  1.000000  1.000000 ScalE2=  1.000000  1.000000
 IRadAn=      5 IRanWt=     -1 IRanGd=            0 ICorTp=0 IEmpDi=  4
 NAtoms=    3 NActive=    3 NUniq=    2 SFac= 2.25D+00 NAtFMM=   60 NAOKFM=F Big=F
 Integral buffers will be    131072 words long.
 Raffenetti 1 integral format.
 Two-electron integral symmetry is turned on.
 Leave Link  301 at Wed Feb  8 14:50:59 2023, MaxMem=   754974720 cpu:               0.2 elap:               0.1
 (Enter /opt/cluster/programs/g16-c.01/g16/l302.exe)
 NPDir=0 NMtPBC=     1 NCelOv=     1 NCel=       1 NClECP=     1 NCelD=      1
         NCelK=      1 NCelE2=     1 NClLst=     1 CellRange=     0.0.
 One-electron integrals computed using PRISM.
 One-electron integral symmetry used in STVInt
 NBasis=    41 RedAO= T EigKep=  2.09D-03  NBF=    18     4     7    12
 NBsUse=    41 1.00D-06 EigRej= -1.00D+00 NBFU=    18     4     7    12
 Leave Link  302 at Wed Feb  8 14:51:00 2023, MaxMem=   754974720 cpu:               1.5 elap:               0.5
 (Enter /opt/cluster/programs/g16-c.01/g16/l303.exe)
 DipDrv:  MaxL=1.
 Leave Link  303 at Wed Feb  8 14:51:00 2023, MaxMem=   754974720 cpu:               0.5 elap:               0.3
 (Enter /opt/cluster/programs/g16-c.01/g16/l401.exe)
 ExpMin= 2.97D-02 ExpMax= 1.17D+04 ExpMxC= 4.01D+02 IAcc=3 IRadAn=         5 AccDes= 0.00D+00
 Harris functional with IExCor=  205 and IRadAn=       5 diagonalized for initial guess.
 HarFok:  IExCor=  205 AccDes= 0.00D+00 IRadAn=         5 IDoV= 1 UseB2=F ITyADJ=14
 ICtDFT=  3500011 ScaDFX=  1.000000  1.000000  1.000000  1.000000
 FoFCou: FMM=F IPFlag=           0 FMFlag=      100000 FMFlg1=           0
         NFxFlg=           0 DoJE=T BraDBF=F KetDBF=T FulRan=T
         wScrn=  0.000000 ICntrl=       500 IOpCl=  0 I1Cent=   200000004 NGrid=           0
         NMat0=    1 NMatS0=      1 NMatT0=    0 NMatD0=    1 NMtDS0=    0 NMtDT0=    0
 Petite list used in FoFCou.
 Harris En= -76.1091745752038    
 JPrj=0 DoOrth=F DoCkMO=F.
 Initial guess orbital symmetries:
       Occupied  (A1) (A1) (B2) (A1) (B1)
       Virtual   (A1) (B2) (A1) (B1) (B2) (A1) (B2) (A1) (A1) (B1)
                 (A2) (B2) (A1) (B2) (B2) (A1) (B1) (A1) (A2) (A1)
                 (B1) (B2) (A1) (A2) (B2) (A1) (B1) (B2) (A1) (B2)
                 (A1) (B1) (A1) (A2) (A1) (B2)
 The electronic state of the initial guess is 1-A1.
 Leave Link  401 at Wed Feb  8 14:51:00 2023, MaxMem=   754974720 cpu:               0.8 elap:               0.2
 (Enter /opt/cluster/programs/g16-c.01/g16/l502.exe)
 Keep R1 ints in memory in symmetry-blocked form, NReq=1211474.
 FoFCou: FMM=F IPFlag=           0 FMFlag=           0 FMFlg1=           0
         NFxFlg=           0 DoJE=F BraDBF=F KetDBF=F FulRan=T
         wScrn=  0.000000 ICntrl=       600 IOpCl=  0 I1Cent=           0 NGrid=           0
         NMat0=    1 NMatS0=    861 NMatT0=    0 NMatD0=    1 NMtDS0=    0 NMtDT0=    0
 Petite list used in FoFCou.
 Closed shell SCF:
 Using DIIS extrapolation, IDIIS=  1040.
 NGot=   754974720 LenX=   754868251 LenY=   754865961
 Requested convergence on RMS density matrix=1.00D-08 within 200 cycles.
 Requested convergence on MAX density matrix=1.00D-06.
 Requested convergence on             energy=1.00D-06.
 No special actions if energy rises.

 Cycle   1  Pass 1  IDiag  1:
 E= -75.9517157931525    
 DIIS: error= 4.71D-02 at cycle   1 NSaved=   1.
 NSaved= 1 IEnMin= 1 EnMin= -75.9517157931525     IErMin= 1 ErrMin= 4.71D-02
 ErrMax= 4.71D-02  0.00D+00 EMaxC= 1.00D-01 BMatC= 1.07D-01 BMatP= 1.07D-01
 IDIUse=3 WtCom= 5.29D-01 WtEn= 4.71D-01
 Coeff-Com:  0.100D+01
 Coeff-En:   0.100D+01
 Coeff:      0.100D+01
 Gap=     0.465 Goal=   None    Shift=    0.000
 GapD=    0.465 DampG=2.000 DampE=0.500 DampFc=1.0000 IDamp=-1.
 RMSDP=6.08D-03 MaxDP=1.12D-01              OVMax= 1.27D-01

 Cycle   2  Pass 1  IDiag  1:
 E= -75.9892216943752     Delta-E=       -0.037505901223 Rises=F Damp=F
 DIIS: error= 4.15D-02 at cycle   2 NSaved=   2.
 NSaved= 2 IEnMin= 2 EnMin= -75.9892216943752     IErMin= 2 ErrMin= 4.15D-02
 ErrMax= 4.15D-02  0.00D+00 EMaxC= 1.00D-01 BMatC= 4.70D-02 BMatP= 1.07D-01
 IDIUse=3 WtCom= 5.85D-01 WtEn= 4.15D-01
 Coeff-Com:  0.388D+00 0.612D+00
 Coeff-En:   0.260D+00 0.740D+00
 Coeff:      0.335D+00 0.665D+00
 Gap=     0.558 Goal=   None    Shift=    0.000
 RMSDP=3.03D-03 MaxDP=5.42D-02 DE=-3.75D-02 OVMax= 5.95D-02

 Cycle   3  Pass 1  IDiag  1:
 E= -76.0224127622088     Delta-E=       -0.033191067834 Rises=F Damp=F
 DIIS: error= 3.98D-03 at cycle   3 NSaved=   3.
 NSaved= 3 IEnMin= 3 EnMin= -76.0224127622088     IErMin= 3 ErrMin= 3.98D-03
 ErrMax= 3.98D-03  0.00D+00 EMaxC= 1.00D-01 BMatC= 1.03D-03 BMatP= 4.70D-02
 IDIUse=3 WtCom= 9.60D-01 WtEn= 3.98D-02
 Coeff-Com: -0.406D-01 0.823D-01 0.958D+00
 Coeff-En:   0.000D+00 0.000D+00 0.100D+01
 Coeff:     -0.390D-01 0.790D-01 0.960D+00
 Gap=     0.542 Goal=   None    Shift=    0.000
 RMSDP=4.52D-04 MaxDP=8.40D-03 DE=-3.32D-02 OVMax= 9.82D-03

 Cycle   4  Pass 1  IDiag  1:
 E= -76.0232446435851     Delta-E=       -0.000831881376 Rises=F Damp=F
 DIIS: error= 8.49D-04 at cycle   4 NSaved=   4.
 NSaved= 4 IEnMin= 4 EnMin= -76.0232446435851     IErMin= 4 ErrMin= 8.49D-04
 ErrMax= 8.49D-04  0.00D+00 EMaxC= 1.00D-01 BMatC= 9.47D-06 BMatP= 1.03D-03
 IDIUse=3 WtCom= 9.92D-01 WtEn= 8.49D-03
 Coeff-Com:  0.999D-02-0.417D-01-0.353D+00 0.138D+01
 Coeff-En:   0.000D+00 0.000D+00 0.000D+00 0.100D+01
 Coeff:      0.991D-02-0.413D-01-0.350D+00 0.138D+01
 Gap=     0.543 Goal=   None    Shift=    0.000
 RMSDP=1.24D-04 MaxDP=1.64D-03 DE=-8.32D-04 OVMax= 2.50D-03

 Cycle   5  Pass 1  IDiag  1:
 E= -76.0232690499019     Delta-E=       -0.000024406317 Rises=F Damp=F
 DIIS: error= 2.29D-04 at cycle   5 NSaved=   5.
 NSaved= 5 IEnMin= 5 EnMin= -76.0232690499019     IErMin= 5 ErrMin= 2.29D-04
 ErrMax= 2.29D-04  0.00D+00 EMaxC= 1.00D-01 BMatC= 4.31D-07 BMatP= 9.47D-06
 IDIUse=3 WtCom= 9.98D-01 WtEn= 2.29D-03
 Coeff-Com: -0.362D-03 0.446D-02 0.355D-01-0.309D+00 0.127D+01
 Coeff-En:   0.000D+00 0.000D+00 0.000D+00 0.000D+00 0.100D+01
 Coeff:     -0.361D-03 0.445D-02 0.354D-01-0.309D+00 0.127D+01
 Gap=     0.544 Goal=   None    Shift=    0.000
 RMSDP=2.84D-05 MaxDP=5.13D-04 DE=-2.44D-05 OVMax= 7.15D-04

 Cycle   6  Pass 1  IDiag  1:
 E= -76.0232703429912     Delta-E=       -0.000001293089 Rises=F Damp=F
 DIIS: error= 4.11D-05 at cycle   6 NSaved=   6.
 NSaved= 6 IEnMin= 6 EnMin= -76.0232703429912     IErMin= 6 ErrMin= 4.11D-05
 ErrMax= 4.11D-05  0.00D+00 EMaxC= 1.00D-01 BMatC= 1.70D-08 BMatP= 4.31D-07
 IDIUse=1 WtCom= 1.00D+00 WtEn= 0.00D+00
 Coeff-Com: -0.429D-03 0.141D-02 0.119D-01-0.227D-01-0.226D+00 0.124D+01
 Coeff:     -0.429D-03 0.141D-02 0.119D-01-0.227D-01-0.226D+00 0.124D+01
 Gap=     0.544 Goal=   None    Shift=    0.000
 RMSDP=5.23D-06 MaxDP=1.17D-04 DE=-1.29D-06 OVMax= 1.59D-04

 Cycle   7  Pass 1  IDiag  1:
 E= -76.0232703937211     Delta-E=       -0.000000050730 Rises=F Damp=F
 DIIS: error= 5.17D-06 at cycle   7 NSaved=   7.
 NSaved= 7 IEnMin= 7 EnMin= -76.0232703937211     IErMin= 7 ErrMin= 5.17D-06
 ErrMax= 5.17D-06  0.00D+00 EMaxC= 1.00D-01 BMatC= 5.58D-10 BMatP= 1.70D-08
 IDIUse=1 WtCom= 1.00D+00 WtEn= 0.00D+00
 Coeff-Com:  0.131D-03-0.572D-03-0.507D-02 0.222D-01-0.270D-02-0.277D+00
 Coeff-Com:  0.126D+01
 Coeff:      0.131D-03-0.572D-03-0.507D-02 0.222D-01-0.270D-02-0.277D+00
 Coeff:      0.126D+01
 Gap=     0.544 Goal=   None    Shift=    0.000
 RMSDP=8.63D-07 MaxDP=1.10D-05 DE=-5.07D-08 OVMax= 2.14D-05

 Cycle   8  Pass 1  IDiag  1:
 E= -76.0232703949149     Delta-E=       -0.000000001194 Rises=F Damp=F
 DIIS: error= 6.50D-07 at cycle   8 NSaved=   8.
 NSaved= 8 IEnMin= 8 EnMin= -76.0232703949149     IErMin= 8 ErrMin= 6.50D-07
 ErrMax= 6.50D-07  0.00D+00 EMaxC= 1.00D-01 BMatC= 1.07D-11 BMatP= 5.58D-10
 IDIUse=1 WtCom= 1.00D+00 WtEn= 0.00D+00
 Coeff-Com: -0.258D-04 0.122D-03 0.113D-02-0.570D-02 0.542D-02 0.521D-01
 Coeff-Com: -0.371D+00 0.132D+01
 Coeff:     -0.258D-04 0.122D-03 0.113D-02-0.570D-02 0.542D-02 0.521D-01
 Coeff:     -0.371D+00 0.132D+01
 Gap=     0.544 Goal=   None    Shift=    0.000
 RMSDP=1.76D-07 MaxDP=2.47D-06 DE=-1.19D-09 OVMax= 3.24D-06

 Cycle   9  Pass 1  IDiag  1:
 E= -76.0232703949437     Delta-E=       -0.000000000029 Rises=F Damp=F
 DIIS: error= 1.11D-07 at cycle   9 NSaved=   9.
 NSaved= 9 IEnMin= 9 EnMin= -76.0232703949437     IErMin= 9 ErrMin= 1.11D-07
 ErrMax= 1.11D-07  0.00D+00 EMaxC= 1.00D-01 BMatC= 4.00D-13 BMatP= 1.07D-11
 IDIUse=1 WtCom= 1.00D+00 WtEn= 0.00D+00
 Coeff-Com:  0.477D-05-0.228D-04-0.234D-03 0.131D-02-0.167D-02-0.103D-01
 Coeff-Com:  0.936D-01-0.443D+00 0.136D+01
 Coeff:      0.477D-05-0.228D-04-0.234D-03 0.131D-02-0.167D-02-0.103D-01
 Coeff:      0.936D-01-0.443D+00 0.136D+01
 Gap=     0.544 Goal=   None    Shift=    0.000
 RMSDP=2.79D-08 MaxDP=3.64D-07 DE=-2.88D-11 OVMax= 5.34D-07

 Cycle  10  Pass 1  IDiag  1:
 E= -76.0232703949446     Delta-E=       -0.000000000001 Rises=F Damp=F
 DIIS: error= 2.75D-08 at cycle  10 NSaved=  10.
 NSaved=10 IEnMin=10 EnMin= -76.0232703949446     IErMin=10 ErrMin= 2.75D-08
 ErrMax= 2.75D-08  0.00D+00 EMaxC= 1.00D-01 BMatC= 1.98D-14 BMatP= 4.00D-13
 IDIUse=1 WtCom= 1.00D+00 WtEn= 0.00D+00
 Coeff-Com: -0.666D-06 0.321D-05 0.428D-04-0.292D-03 0.546D-03 0.161D-02
 Coeff-Com: -0.220D-01 0.125D+00-0.586D+00 0.148D+01
 Coeff:     -0.666D-06 0.321D-05 0.428D-04-0.292D-03 0.546D-03 0.161D-02
 Coeff:     -0.220D-01 0.125D+00-0.586D+00 0.148D+01
 Gap=     0.544 Goal=   None    Shift=    0.000
 RMSDP=7.91D-09 MaxDP=9.04D-08 DE=-8.81D-13 OVMax= 1.87D-07

 SCF Done:  E(RHF) =  -76.0232703949     A.U. after   10 cycles
            NFock= 10  Conv=0.79D-08     -V/T= 2.0033
 KE= 7.576954741195D+01 PE=-1.979423810440D+02 EE= 3.736805404054D+01
 Leave Link  502 at Wed Feb  8 14:51:04 2023, MaxMem=   754974720 cpu:               7.0 elap:               3.5
 (Enter /opt/cluster/programs/g16-c.01/g16/l801.exe)
 Windowed orbitals will be sorted by symmetry type.
 ExpMin= 2.97D-02 ExpMax= 1.17D+04 ExpMxC= 4.01D+02 IAcc=3 IRadAn=         5 AccDes= 0.00D+00
 HarFok:  IExCor=  205 AccDes= 0.00D+00 IRadAn=         5 IDoV=-2 UseB2=F ITyADJ=14
 ICtDFT= 12500011 ScaDFX=  1.000000  1.000000  1.000000  1.000000
 Largest valence mixing into a core orbital is  6.42D-05
 Largest core mixing into a valence orbital is  1.84D-05
 Range of M.O.s used for correlation:     2    41
 NBasis=    41 NAE=     5 NBE=     5 NFC=     1 NFV=     0
 NROrb=     40 NOA=     4 NOB=     4 NVA=    36 NVB=    36
 Leave Link  801 at Wed Feb  8 14:51:04 2023, MaxMem=   754974720 cpu:               0.3 elap:               0.1
 (Enter /opt/cluster/programs/g16-c.01/g16/l804.exe)
 Closed-shell transformation, MDV=   754974720 ITran=4 ISComp=2.
 Unit  1 TFree=         57018 TCopy=        140846.
 Semi-Direct transformation.
 ModeAB=           4 MOrb=             4 LenV=     754769467
 LASXX=        30213 LTotXX=       30213 LenRXX=       63236
 LTotAB=       33023 MaxLAS=      110560 LenRXY=           0
 NonZer=       93449 LenScr=      785920 LnRSAI=      110560
 LnScr1=      785920 LExtra=           0 Total=      1745636
 MaxDsk=          -1 SrtSym=           T ITran=            4
 DoSDTr:  NPSUse=  4
 JobTyp=0 Pass  1:  I=   1 to   4.
 (rs|ai) integrals will be sorted in core.
 Complete sort for first half transformation.
 First half transformation complete.
 Complete sort for second half transformation.
 Second half transformation complete.
 Spin components of T(2) and E(2):
     alpha-alpha T2 =       0.8376253111D-02 E2=     -0.2887461129D-01
     alpha-beta  T2 =       0.4747728517D-01 E2=     -0.1687290451D+00
     beta-beta   T2 =       0.8376253111D-02 E2=     -0.2887461129D-01
 ANorm=    0.1031615137D+01
 E2 =    -0.2264782677D+00 EUMP2 =    -0.76249748662612D+02
 Leave Link  804 at Wed Feb  8 14:51:09 2023, MaxMem=   754974720 cpu:               9.8 elap:               4.9
 (Enter /opt/cluster/programs/g16-c.01/g16/l913.exe)
 CIDS:  MDV=   754974720.
 Frozen-core window:  NFC=   1 NFV=   0.
 IFCWin=0 IBDFC=1 NFBD=     0     0 NFCmp=     0     0 NFFFC=     0     0
 Using DD3R+UMP44R for 1st iteration.
 Using DD4RQ for 2nd and later iterations.
 Keep R2 and R3 ints in memory in symmetry-blocked form, NReq=1214250.
 FoFCou: FMM=F IPFlag=           0 FMFlag=           0 FMFlg1=           0
         NFxFlg=           0 DoJE=F BraDBF=F KetDBF=F FulRan=T
         wScrn=  0.000000 ICntrl=       600 IOpCl=  0 I1Cent=           0 NGrid=           0
         NMat0=    1 NMatS0=    861 NMatT0=    0 NMatD0=    1 NMtDS0=    0 NMtDT0=    0
 Petite list used in FoFCou.
 CIDS: In Core Option IDoMem=           1.
 CCSD(T)
 =======
 Iterations=  50 Convergence= 0.100D-06
 Produce multiple copies of IABC intergrals
 Iteration Nr.   1
 **********************
 DD1Dir will call FoFMem   1 times, MxPair=        20
 NAB=    10 NAA=     0 NBB=     0.
 MP4(R+Q)=  0.27312062D-02
 Maximum subspace dimension=  5
 A-vector RMS=  5.8952134D-03 Max=  1.8580431D-02 conv= 1.00D-05.
 RLE energy=       -0.2268928317
 E3=       -0.32453360D-02        EUMP3=      -0.76252993999D+02
 E4(DQ)=   -0.18538794D-02        UMP4(DQ)=   -0.76254847878D+02
 E4(SDQ)=  -0.39462007D-02        UMP4(SDQ)=  -0.76256940199D+02
 VARIATIONAL ENERGIES WITH THE FIRST-ORDER WAVEFUNCTION:
 DE(Corr)= -0.22689212     E(Corr)=     -76.250162514    
 NORM(A)=   0.10322665D+01
 Iteration Nr.   2
 **********************
 DD1Dir will call FoFMem   1 times, MxPair=        20
 NAB=    10 NAA=     0 NBB=     0.
 A-vector RMS=  7.2768951D-04 Max=  3.2953498D-03 conv= 1.00D-05.
 RLE energy=       -0.2328947677
 DE(Corr)= -0.23222032     E(CORR)=     -76.255490716     Delta=-5.33D-03
 NORM(A)=   0.10349376D+01
 Iteration Nr.   3
 **********************
 DD1Dir will call FoFMem   1 times, MxPair=        20
 NAB=    10 NAA=     0 NBB=     0.
 A-vector RMS=  8.3845319D-04 Max=  3.1640585D-03 conv= 1.00D-05.
 RLE energy=       -0.2333522522
 DE(Corr)= -0.23282898     E(CORR)=     -76.256099374     Delta=-6.09D-04
 NORM(A)=   0.10356085D+01
 Iteration Nr.   4
 **********************
 DD1Dir will call FoFMem   1 times, MxPair=        20
 NAB=    10 NAA=     0 NBB=     0.
 A-vector RMS=  1.1653125D-04 Max=  3.9395038D-04 conv= 1.00D-05.
 RLE energy=       -0.2334027294
 DE(Corr)= -0.23336325     E(CORR)=     -76.256633649     Delta=-5.34D-04
 NORM(A)=   0.10357557D+01
 Iteration Nr.   5
 **********************
 DD1Dir will call FoFMem   1 times, MxPair=        20
 NAB=    10 NAA=     0 NBB=     0.
 A-vector RMS=  3.9922654D-05 Max=  1.7045810D-04 conv= 1.00D-05.
 RLE energy=       -0.2334121351
 DE(Corr)= -0.23340683     E(CORR)=     -76.256677228     Delta=-4.36D-05
 NORM(A)=   0.10357784D+01
 Iteration Nr.   6
 **********************
 DD1Dir will call FoFMem   1 times, MxPair=        20
 NAB=    10 NAA=     0 NBB=     0.
 A-vector RMS=  1.1744538D-05 Max=  4.7657256D-05 conv= 1.00D-05.
 RLE energy=       -0.2334088282
 DE(Corr)= -0.23341006     E(CORR)=     -76.256680454     Delta=-3.23D-06
 NORM(A)=   0.10357800D+01
 Iteration Nr.   7
 **********************
 DD1Dir will call FoFMem   1 times, MxPair=        20
 NAB=    10 NAA=     0 NBB=     0.
 A-vector RMS=  3.9347637D-06 Max=  1.3247554D-05 conv= 1.00D-05.
 RLE energy=       -0.2334093567
 DE(Corr)= -0.23341015     E(CORR)=     -76.256680547     Delta=-9.34D-08
 NORM(A)=   0.10357804D+01
 Iteration Nr.   8
 **********************
 DD1Dir will call FoFMem   1 times, MxPair=        20
 NAB=    10 NAA=     0 NBB=     0.
 A-vector RMS=  1.4170328D-06 Max=  6.4647952D-06 conv= 1.00D-05.
 RLE energy=       -0.2334096635
 DE(Corr)= -0.23340976     E(CORR)=     -76.256680159     Delta= 3.89D-07
 NORM(A)=   0.10357808D+01
 Iteration Nr.   9
 **********************
 DD1Dir will call FoFMem   1 times, MxPair=        20
 NAB=    10 NAA=     0 NBB=     0.
 A-vector RMS=  3.0968464D-07 Max=  1.1564804D-06 conv= 1.00D-05.
 RLE energy=       -0.2334099012
 DE(Corr)= -0.23340991     E(CORR)=     -76.256680306     Delta=-1.47D-07
 NORM(A)=   0.10357810D+01
 Iteration Nr.  10
 **********************
 DD1Dir will call FoFMem   1 times, MxPair=        20
 NAB=    10 NAA=     0 NBB=     0.
 A-vector RMS=  1.4369504D-07 Max=  5.5692002D-07 conv= 1.00D-05.
 RLE energy=       -0.2334099409
 DE(Corr)= -0.23340992     E(CORR)=     -76.256680319     Delta=-1.25D-08
 NORM(A)=   0.10357811D+01
 CI/CC converged in   10 iterations to DelEn=-1.25D-08 Conv= 1.00D-07 ErrA1= 1.44D-07 Conv= 1.00D-05
 Wavefunction amplitudes converged. E(Corr)=     -76.256680319    
 Largest amplitude= 3.61D-02
 IPart=  4 IA=    3   10.95% done.
 IPart=  2 IA=    5   21.27% done.
 IPart=  3 IA=    7   30.95% done.
 IPart=  4 IA=    9   40.00% done.
 IPart=  2 IA=   12   52.38% done.
 IPart=  1 IA=   15   63.33% done.
 IPart=  3 IA=   18   72.86% done.
 IPart=  1 IA=   21   80.95% done.
 IPart=  3 IA=   26   91.27% done.
 Time for triples=        0.98 seconds.
 T4(CCSD)= -0.63119043D-02
 T5(CCSD)=  0.46847599D-03
 CCSD(T)= -0.76262523747D+02
 Discarding MO integrals.
 Leave Link  913 at Wed Feb  8 14:51:09 2023, MaxMem=   754974720 cpu:               2.2 elap:               0.6
 (Enter /opt/cluster/programs/g16-c.01/g16/l601.exe)
 Copying SCF densities to generalized density rwf, IOpCl= 0 IROHF=0.

 **********************************************************************

            Population analysis using the SCF Density.

 **********************************************************************

 Orbital symmetries:
       Occupied  (A1) (A1) (B2) (A1) (B1)
       Virtual   (A1) (B2) (A1) (B1) (A1) (B2) (B2) (A1) (A1) (A2)
                 (B1) (B2) (A1) (B2) (B2) (A1) (A1) (B1) (A2) (A1)
                 (B2) (B1) (A1) (A2) (B2) (A1) (B1) (B2) (A1) (B2)
                 (A1) (A1) (B1) (A2) (A1) (B2)
 The electronic state is 1-A1.
 Alpha  occ. eigenvalues --  -20.59387  -1.34604  -0.65202  -0.61519  -0.51124
 Alpha virt. eigenvalues --    0.03241   0.05942   0.17176   0.20118   0.21950
 Alpha virt. eigenvalues --    0.23888   0.26694   0.35579   0.36424   0.39441
 Alpha virt. eigenvalues --    0.39910   0.55086   0.62655   0.65613   0.75253
 Alpha virt. eigenvalues --    0.94861   1.11691   1.11788   1.14222   1.27547
 Alpha virt. eigenvalues --    1.41552   1.44316   1.59675   1.96237   2.01293
 Alpha virt. eigenvalues --    2.06665   2.10345   2.44918   2.53823   2.63432
 Alpha virt. eigenvalues --    3.08272   3.67437   3.67603   3.68441   3.96057
 Alpha virt. eigenvalues --    4.18891
          Condensed to atoms (all electrons):
               1          2          3
     1  O    7.791335   0.300650   0.300650
     2  H    0.300650   0.493916   0.009117
     3  H    0.300650   0.009117   0.493916
 Mulliken charges:
               1
     1  O   -0.392634
     2  H    0.196317
     3  H    0.196317
 Sum of Mulliken charges =   0.00000
 Mulliken charges with hydrogens summed into heavy atoms:
               1
     1  O    0.000000
 Electronic spatial extent (au):  <R**2>=             20.1769
 Charge=              0.0000 electrons
 Dipole moment (field-independent basis, Debye):
    X=             -0.0000    Y=             -0.0000    Z=             -2.3465  Tot=              2.3465
 Quadrupole moment (field-independent basis, Debye-Ang):
   XX=             -7.6752   YY=             -5.1243   ZZ=             -5.6316
   XY=              0.0000   XZ=              0.0000   YZ=              0.0000
 Traceless Quadrupole moment (field-independent basis, Debye-Ang):
   XX=             -1.5315   YY=              1.0194   ZZ=              0.5121
   XY=              0.0000   XZ=              0.0000   YZ=              0.0000
 Octapole moment (field-independent basis, Debye-Ang**2):
  XXX=              0.0000  YYY=             -0.0000  ZZZ=             -1.5923  XYY=             -0.0000
  XXY=              0.0000  XXZ=             -0.2966  XZZ=             -0.0000  YZZ=             -0.0000
  YYZ=             -1.3544  XYZ=             -0.0000
 Hexadecapole moment (field-independent basis, Debye-Ang**3):
 XXXX=             -6.8557 YYYY=             -6.9577 ZZZZ=             -7.7826 XXXY=             -0.0000
 XXXZ=             -0.0000 YYYX=             -0.0000 YYYZ=              0.0000 ZZZX=             -0.0000
 ZZZY=             -0.0000 XXYY=             -2.4861 XXZZ=             -2.5641 YYZZ=             -1.8805
 XXYZ=             -0.0000 YYXZ=              0.0000 ZZXY=              0.0000
 N-N= 8.781509196561D+00 E-N=-1.979423813267D+02  KE= 7.576954741195D+01
 Symmetry A1   KE= 6.773893771731D+01
 Symmetry A2   KE= 3.225409981947D-34
 Symmetry B1   KE= 4.470886400252D+00
 Symmetry B2   KE= 3.559723294386D+00
 Leave Link  601 at Wed Feb  8 14:51:10 2023, MaxMem=   754974720 cpu:               0.9 elap:               0.5
 (Enter /opt/cluster/programs/g16-c.01/g16/l9999.exe)
 Unable to Open any file for archive entry.
 1\1\GINC-NODE64\SP\RCCSD(T)-FC\Aug-CC-pVDZ\H2O1\BOITTIER\08-Feb-2023\0
 \\#P CCSD(T)/aug-cc-pVDZ scf(maxcycle=200)\\Gaussian input\\0,1\O,0,0.
 ,0.11751,0.\H,0,0.7973622306,-0.5007896629,0.\H,0,-0.5382848041,-0.735
 9127966,0.\\Version=ES64L-G16RevC.01\State=1-A1\HF=-76.0232704\MP2=-76
 .2497487\MP3=-76.252994\MP4D=-76.2575791\MP4DQ=-76.2548479\MP4SDQ=-76.
 2569402\CCSD=-76.2566803\CCSD(T)=-76.2625237\RMSD=7.910e-09\PG=C02V [C
 2(O1),SGV(H2)]\\@
 The archive entry for this job was punched.


 MORNING PEOPLE ARE USUALLY ADMIRED AS EARLY BIRDS.
 RECALL BEN FRANKLIN'S APHORISM THAT THE EARLY BIRD GETS THE WORM.
 I IDENTIFY WITH THE WORM. --  CRAIG JAGGER, MINNEAPOLIS, KS.
 Job cpu time:       0 days  0 hours  0 minutes 24.3 seconds.
 Elapsed time:       0 days  0 hours  0 minutes 11.0 seconds.
 File lengths (MBytes):  RWF=     20 Int=      0 D2E=      0 Chk=      1 Scr=      1
 Normal termination of Gaussian 16 at Wed Feb  8 14:51:10 2023.
