 Entering Gaussian System, Link 0=/opt/cluster/programs/g16-c.01/g16/g16
 Input=/scratch/boittier/jobs/tmp.7262115/gaussian_172_water_wb97_ptz.com
 Output=/scratch/boittier/jobs/tmp.7262115/gaussian_172_water_wb97_ptz.out
 Initial command:
 /opt/cluster/programs/g16-c.01/g16/l1.exe "/scratch/boittier/jobs/tmp.7262115/Gau-51915.inp" -scrdir="/scratch/boittier/jobs/tmp.7262115/"
 Entering Link 1 = /opt/cluster/programs/g16-c.01/g16/l1.exe PID=     51916.
  
 Copyright (c) 1988-2019, Gaussian, Inc.  All Rights Reserved.
  
 This is part of the Gaussian(R) 16 program.  It is based on
 the Gaussian(R) 09 system (copyright 2009, Gaussian, Inc.),
 the Gaussian(R) 03 system (copyright 2003, Gaussian, Inc.),
 the Gaussian(R) 98 system (copyright 1998, Gaussian, Inc.),
 the Gaussian(R) 94 system (copyright 1995, Gaussian, Inc.),
 the Gaussian 92(TM) system (copyright 1992, Gaussian, Inc.),
 the Gaussian 90(TM) system (copyright 1990, Gaussian, Inc.),
 the Gaussian 88(TM) system (copyright 1988, Gaussian, Inc.),
 the Gaussian 86(TM) system (copyright 1986, Carnegie Mellon
 University), and the Gaussian 82(TM) system (copyright 1983,
 Carnegie Mellon University). Gaussian is a federally registered
 trademark of Gaussian, Inc.
  
 This software contains proprietary and confidential information,
 including trade secrets, belonging to Gaussian, Inc.
  
 This software is provided under written license and may be
 used, copied, transmitted, or stored only in accord with that
 written license.
  
 The following legend is applicable only to US Government
 contracts under FAR:
  
                    RESTRICTED RIGHTS LEGEND
  
 Use, reproduction and disclosure by the US Government is
 subject to restrictions as set forth in subparagraphs (a)
 and (c) of the Commercial Computer Software - Restricted
 Rights clause in FAR 52.227-19.
  
 Gaussian, Inc.
 340 Quinnipiac St., Bldg. 40, Wallingford CT 06492
  
  
 ---------------------------------------------------------------
 Warning -- This program may not be used in any manner that
 competes with the business of Gaussian, Inc. or will provide
 assistance to any competitor of Gaussian, Inc.  The licensee
 of this program is prohibited from giving any competitor of
 Gaussian, Inc. access to this program.  By using this program,
 the user acknowledges that Gaussian, Inc. is engaged in the
 business of creating and licensing software in the field of
 computational chemistry and represents and warrants to the
 licensee that it is not a competitor of Gaussian, Inc. and that
 it will not use this program in any manner prohibited above.
 ---------------------------------------------------------------
  

 Cite this work as:
 Gaussian 16, Revision C.01,
 M. J. Frisch, G. W. Trucks, H. B. Schlegel, G. E. Scuseria, 
 M. A. Robb, J. R. Cheeseman, G. Scalmani, V. Barone, 
 G. A. Petersson, H. Nakatsuji, X. Li, M. Caricato, A. V. Marenich, 
 J. Bloino, B. G. Janesko, R. Gomperts, B. Mennucci, H. P. Hratchian, 
 J. V. Ortiz, A. F. Izmaylov, J. L. Sonnenberg, D. Williams-Young, 
 F. Ding, F. Lipparini, F. Egidi, J. Goings, B. Peng, A. Petrone, 
 T. Henderson, D. Ranasinghe, V. G. Zakrzewski, J. Gao, N. Rega, 
 G. Zheng, W. Liang, M. Hada, M. Ehara, K. Toyota, R. Fukuda, 
 J. Hasegawa, M. Ishida, T. Nakajima, Y. Honda, O. Kitao, H. Nakai, 
 T. Vreven, K. Throssell, J. A. Montgomery, Jr., J. E. Peralta, 
 F. Ogliaro, M. J. Bearpark, J. J. Heyd, E. N. Brothers, K. N. Kudin, 
 V. N. Staroverov, T. A. Keith, R. Kobayashi, J. Normand, 
 K. Raghavachari, A. P. Rendell, J. C. Burant, S. S. Iyengar, 
 J. Tomasi, M. Cossi, J. M. Millam, M. Klene, C. Adamo, R. Cammi, 
 J. W. Ochterski, R. L. Martin, K. Morokuma, O. Farkas, 
 J. B. Foresman, and D. J. Fox, Gaussian, Inc., Wallingford CT, 2019.
 
 ******************************************
 Gaussian 16:  ES64L-G16RevC.01  3-Jul-2019
                 8-Feb-2023 
 ******************************************
 %nproc=4
 Will use up to    4 processors via shared memory.
 %mem=5760MB
 %chk=gaussian_172_water_wb97_ptz.chk
 ------------------------------------
 #P wB97XD/6-311g** scf(maxcycle=200)
 ------------------------------------
 1/38=1,172=1/1;
 2/12=2,17=6,18=5,40=1/2;
 3/5=4,6=6,7=101,11=2,25=1,30=1,74=-58/1,2,3;
 4//1;
 5/5=2,7=200,38=5/2;
 6/7=2,8=2,9=2,10=2,28=1/1;
 99/5=1,9=1/99;
 Leave Link    1 at Wed Feb  8 14:42:58 2023, MaxMem=   754974720 cpu:               0.1 elap:               0.0
 (Enter /opt/cluster/programs/g16-c.01/g16/l101.exe)
 --------------
 Gaussian input
 --------------
 Symbolic Z-matrix:
 Charge =  0 Multiplicity = 1
 O                     0.        0.11751   0. 
 H                     0.79736  -0.50079   0. 
 H                    -0.83887  -0.44319   0. 
 
 ITRead=  0  0  0
 MicOpt= -1 -1 -1
 NAtoms=      3 NQM=        3 NQMF=       0 NMMI=      0 NMMIF=      0
                NMic=       0 NMicF=      0.
                    Isotopes and Nuclear Properties:
 (Nuclear quadrupole moments (NQMom) in fm**2, nuclear magnetic moments (NMagM)
  in nuclear magnetons)

  Atom         1           2           3
 IAtWgt=          16           1           1
 AtmWgt=  15.9949146   1.0078250   1.0078250
 NucSpn=           0           1           1
 AtZEff=  -0.0000000  -0.0000000  -0.0000000
 NQMom=    0.0000000   0.0000000   0.0000000
 NMagM=    0.0000000   2.7928460   2.7928460
 AtZNuc=   8.0000000   1.0000000   1.0000000
 Leave Link  101 at Wed Feb  8 14:42:59 2023, MaxMem=   754974720 cpu:               0.6 elap:               0.2
 (Enter /opt/cluster/programs/g16-c.01/g16/l202.exe)
                          Input orientation:                          
 ---------------------------------------------------------------------
 Center     Atomic      Atomic             Coordinates (Angstroms)
 Number     Number       Type             X           Y           Z
 ---------------------------------------------------------------------
      1          8           0        0.000000    0.117510    0.000000
      2          1           0        0.797362   -0.500790    0.000000
      3          1           0       -0.838866   -0.443190    0.000000
 ---------------------------------------------------------------------
                    Distance matrix (angstroms):
                    1          2          3
     1  O    0.000000
     2  H    1.009000   0.000000
     3  H    1.009000   1.637242   0.000000
 Stoichiometry    H2O
 Framework group  C2V[C2(O),SGV(H2)]
 Deg. of freedom     2
 Full point group                 C2V     NOp   4
 Largest Abelian subgroup         C2V     NOp   4
 Largest concise Abelian subgroup C2      NOp   2
                         Standard orientation:                         
 ---------------------------------------------------------------------
 Center     Atomic      Atomic             Coordinates (Angstroms)
 Number     Number       Type             X           Y           Z
 ---------------------------------------------------------------------
      1          8           0        0.000000   -0.000000    0.117973
      2          1           0       -0.000000    0.818621   -0.471892
      3          1           0       -0.000000   -0.818621   -0.471892
 ---------------------------------------------------------------------
 Rotational constants (GHZ):         811.4130231         374.1419960         256.0688312
 Leave Link  202 at Wed Feb  8 14:42:59 2023, MaxMem=   754974720 cpu:               0.2 elap:               0.1
 (Enter /opt/cluster/programs/g16-c.01/g16/l301.exe)
 Standard basis: 6-311G(d,p) (5D, 7F)
 Ernie: Thresh=  0.10000D-02 Tol=  0.10000D-05 Strict=F.
 There are    15 symmetry adapted cartesian basis functions of A1  symmetry.
 There are     2 symmetry adapted cartesian basis functions of A2  symmetry.
 There are     5 symmetry adapted cartesian basis functions of B1  symmetry.
 There are     9 symmetry adapted cartesian basis functions of B2  symmetry.
 There are    14 symmetry adapted basis functions of A1  symmetry.
 There are     2 symmetry adapted basis functions of A2  symmetry.
 There are     5 symmetry adapted basis functions of B1  symmetry.
 There are     9 symmetry adapted basis functions of B2  symmetry.
    30 basis functions,    48 primitive gaussians,    31 cartesian basis functions
     5 alpha electrons        5 beta electrons
       nuclear repulsion energy         8.7145261926 Hartrees.
 IExCor= 4639 DFT=T Ex+Corr=wB97XD ExCW=0 ScaHFX=  1.000000
 ScaDFX=  1.000000  1.000000  1.000000  1.000000 ScalE2=  1.000000  1.000000
 IRadAn=      5 IRanWt=     -1 IRanGd=            0 ICorTp=0 IEmpDi=121
 HFx  wShort=  0.000000 wLong=  0.200000 cFull=  0.222036 cShort=  0.000000 cLong=  0.777964
 DFx  wShort=  0.000000 wLong=  0.200000 cFull=  0.000000 cShort=  0.000000 cLong=  1.000000
 NAtoms=    3 NActive=    3 NUniq=    2 SFac= 2.25D+00 NAtFMM=   60 NAOKFM=F Big=F
 Integral buffers will be    131072 words long.
 Raffenetti 2 integral format.
 Two-electron integral symmetry is turned on.
 R6Disp:  Grimme-D2 Dispersion energy=       -0.0000422181 Hartrees.
 Nuclear repulsion after empirical dispersion term =        8.7144839744 Hartrees.
 Leave Link  301 at Wed Feb  8 14:42:59 2023, MaxMem=   754974720 cpu:               0.2 elap:               0.0
 (Enter /opt/cluster/programs/g16-c.01/g16/l302.exe)
 NPDir=0 NMtPBC=     1 NCelOv=     1 NCel=       1 NClECP=     1 NCelD=      1
         NCelK=      1 NCelE2=     1 NClLst=     1 CellRange=     0.0.
 One-electron integrals computed using PRISM.
 One-electron integral symmetry used in STVInt
 NBasis=    30 RedAO= T EigKep=  2.25D-02  NBF=    14     2     5     9
 NBsUse=    30 1.00D-06 EigRej= -1.00D+00 NBFU=    14     2     5     9
 Precomputing XC quadrature grid using
 IXCGrd= 4 IRadAn=           5 IRanWt=          -1 IRanGd=           0 AccXCQ= 0.00D+00.
 Generated NRdTot=       0 NPtTot=           0 NUsed=           0 NTot=          32
 NSgBfM=    31    31    31    31    31 MxSgAt=     3 MxSgA2=     3.
 Leave Link  302 at Wed Feb  8 14:42:59 2023, MaxMem=   754974720 cpu:               0.6 elap:               0.2
 (Enter /opt/cluster/programs/g16-c.01/g16/l303.exe)
 DipDrv:  MaxL=1.
 Leave Link  303 at Wed Feb  8 14:42:59 2023, MaxMem=   754974720 cpu:               0.2 elap:               0.1
 (Enter /opt/cluster/programs/g16-c.01/g16/l401.exe)
 ExpMin= 1.03D-01 ExpMax= 8.59D+03 ExpMxC= 1.30D+03 IAcc=3 IRadAn=         5 AccDes= 0.00D+00
 Harris functional with IExCor= 4639 and IRadAn=       5 diagonalized for initial guess.
 HarFok:  IExCor= 4639 AccDes= 0.00D+00 IRadAn=         5 IDoV= 1 UseB2=F ITyADJ=14
 ICtDFT=  3500011 ScaDFX=  1.000000  1.000000  1.000000  1.000000
 FoFCou: FMM=F IPFlag=           0 FMFlag=      100000 FMFlg1=           0
         NFxFlg=           0 DoJE=T BraDBF=F KetDBF=T FulRan=T
         wScrn=  0.000000 ICntrl=       500 IOpCl=  0 I1Cent=   200000004 NGrid=           0
         NMat0=    1 NMatS0=      1 NMatT0=    0 NMatD0=    1 NMtDS0=    0 NMtDT0=    0
 Petite list used in FoFCou.
 Harris En= -73.6179917640965    
 JPrj=0 DoOrth=F DoCkMO=F.
 Initial guess orbital symmetries:
       Occupied  (A1) (A1) (B2) (A1) (B1)
       Virtual   (A1) (B2) (B2) (A1) (A1) (B1) (B2) (A1) (A2) (A1)
                 (B1) (B2) (B2) (A1) (A1) (B2) (B1) (A2) (A1) (A1)
                 (B2) (B1) (A1) (B2) (A1)
 The electronic state of the initial guess is 1-A1.
 Leave Link  401 at Wed Feb  8 14:43:00 2023, MaxMem=   754974720 cpu:               2.7 elap:               1.4
 (Enter /opt/cluster/programs/g16-c.01/g16/l502.exe)
 Keep R1 ints in memory in symmetry-blocked form, NReq=3688799.
 FoFCou: FMM=F IPFlag=           0 FMFlag=           0 FMFlg1=           0
         NFxFlg=           0 DoJE=F BraDBF=F KetDBF=F FulRan=T
         wScrn=  0.000000 ICntrl=       600 IOpCl=  0 I1Cent=           0 NGrid=           0
         NMat0=    1 NMatS0=    465 NMatT0=    0 NMatD0=    1 NMtDS0=    0 NMtDT0=    0
 Petite list used in FoFCou.
 Closed shell SCF:
 Using DIIS extrapolation, IDIIS=  1040.
 NGot=   754974720 LenX=   754939916 LenY=   754938514
 Requested convergence on RMS density matrix=1.00D-08 within 200 cycles.
 Requested convergence on MAX density matrix=1.00D-06.
 Requested convergence on             energy=1.00D-06.
 No special actions if energy rises.
 Integral accuracy reduced to 1.0D-05 until final iterations.

 Cycle   1  Pass 0  IDiag  1:
 E= -76.4066478911193    
 DIIS: error= 8.24D-02 at cycle   1 NSaved=   1.
 NSaved= 1 IEnMin= 1 EnMin= -76.4066478911193     IErMin= 1 ErrMin= 8.24D-02
 ErrMax= 8.24D-02  0.00D+00 EMaxC= 1.00D-01 BMatC= 1.32D-01 BMatP= 1.32D-01
 IDIUse=3 WtCom= 1.76D-01 WtEn= 8.24D-01
 Coeff-Com:  0.100D+01
 Coeff-En:   0.100D+01
 Coeff:      0.100D+01
 Gap=     0.486 Goal=   None    Shift=    0.000
 GapD=    0.486 DampG=2.000 DampE=0.500 DampFc=1.0000 IDamp=-1.
 RMSDP=2.88D-03 MaxDP=2.92D-02              OVMax= 3.52D-02

 Cycle   2  Pass 0  IDiag  1:
 E= -76.4174931469538     Delta-E=       -0.010845255835 Rises=F Damp=F
 DIIS: error= 4.75D-03 at cycle   2 NSaved=   2.
 NSaved= 2 IEnMin= 2 EnMin= -76.4174931469538     IErMin= 2 ErrMin= 4.75D-03
 ErrMax= 4.75D-03  0.00D+00 EMaxC= 1.00D-01 BMatC= 7.34D-04 BMatP= 1.32D-01
 IDIUse=3 WtCom= 9.52D-01 WtEn= 4.75D-02
 Coeff-Com:  0.518D-01 0.948D+00
 Coeff-En:   0.000D+00 0.100D+01
 Coeff:      0.493D-01 0.951D+00
 Gap=     0.487 Goal=   None    Shift=    0.000
 RMSDP=3.37D-04 MaxDP=3.06D-03 DE=-1.08D-02 OVMax= 6.38D-03

 Cycle   3  Pass 0  IDiag  1:
 E= -76.4177142966628     Delta-E=       -0.000221149709 Rises=F Damp=F
 DIIS: error= 2.31D-03 at cycle   3 NSaved=   3.
 NSaved= 3 IEnMin= 3 EnMin= -76.4177142966628     IErMin= 3 ErrMin= 2.31D-03
 ErrMax= 2.31D-03  0.00D+00 EMaxC= 1.00D-01 BMatC= 1.08D-04 BMatP= 7.34D-04
 IDIUse=3 WtCom= 9.77D-01 WtEn= 2.31D-02
 Coeff-Com:  0.120D-01 0.311D+00 0.677D+00
 Coeff-En:   0.000D+00 0.000D+00 0.100D+01
 Coeff:      0.117D-01 0.304D+00 0.685D+00
 Gap=     0.491 Goal=   None    Shift=    0.000
 RMSDP=2.02D-04 MaxDP=2.80D-03 DE=-2.21D-04 OVMax= 2.71D-03

 Cycle   4  Pass 0  IDiag  1:
 E= -76.4177684702740     Delta-E=       -0.000054173611 Rises=F Damp=F
 DIIS: error= 9.42D-04 at cycle   4 NSaved=   4.
 NSaved= 4 IEnMin= 4 EnMin= -76.4177684702740     IErMin= 4 ErrMin= 9.42D-04
 ErrMax= 9.42D-04  0.00D+00 EMaxC= 1.00D-01 BMatC= 1.73D-05 BMatP= 1.08D-04
 IDIUse=3 WtCom= 9.91D-01 WtEn= 9.42D-03
 Coeff-Com:  0.191D-02 0.518D-01 0.303D+00 0.643D+00
 Coeff-En:   0.000D+00 0.000D+00 0.597D-01 0.940D+00
 Coeff:      0.190D-02 0.514D-01 0.301D+00 0.646D+00
 Gap=     0.490 Goal=   None    Shift=    0.000
 RMSDP=7.55D-05 MaxDP=9.44D-04 DE=-5.42D-05 OVMax= 1.14D-03

 Cycle   5  Pass 0  IDiag  1:
 E= -76.4177798465379     Delta-E=       -0.000011376264 Rises=F Damp=F
 DIIS: error= 1.07D-04 at cycle   5 NSaved=   5.
 NSaved= 5 IEnMin= 5 EnMin= -76.4177798465379     IErMin= 5 ErrMin= 1.07D-04
 ErrMax= 1.07D-04  0.00D+00 EMaxC= 1.00D-01 BMatC= 1.95D-07 BMatP= 1.73D-05
 IDIUse=3 WtCom= 9.99D-01 WtEn= 1.07D-03
 Coeff-Com: -0.757D-03-0.195D-01-0.468D-01 0.207D-01 0.105D+01
 Coeff-En:   0.000D+00 0.000D+00 0.000D+00 0.000D+00 0.100D+01
 Coeff:     -0.756D-03-0.194D-01-0.468D-01 0.207D-01 0.105D+01
 Gap=     0.490 Goal=   None    Shift=    0.000
 RMSDP=1.80D-05 MaxDP=1.42D-04 DE=-1.14D-05 OVMax= 2.54D-04

 Cycle   6  Pass 0  IDiag  1:
 E= -76.4177800667352     Delta-E=       -0.000000220197 Rises=F Damp=F
 DIIS: error= 1.28D-05 at cycle   6 NSaved=   6.
 NSaved= 6 IEnMin= 6 EnMin= -76.4177800667352     IErMin= 6 ErrMin= 1.28D-05
 ErrMax= 1.28D-05  0.00D+00 EMaxC= 1.00D-01 BMatC= 3.48D-09 BMatP= 1.95D-07
 IDIUse=1 WtCom= 1.00D+00 WtEn= 0.00D+00
 Coeff-Com:  0.136D-03 0.304D-02 0.364D-02-0.415D-02-0.227D+00 0.122D+01
 Coeff:      0.136D-03 0.304D-02 0.364D-02-0.415D-02-0.227D+00 0.122D+01
 Gap=     0.490 Goal=   None    Shift=    0.000
 RMSDP=4.23D-06 MaxDP=4.70D-05 DE=-2.20D-07 OVMax= 7.02D-05

 Initial convergence to 1.0D-05 achieved.  Increase integral accuracy.
 Cycle   7  Pass 1  IDiag  1:
 E= -76.4177895016674     Delta-E=       -0.000009434932 Rises=F Damp=F
 DIIS: error= 9.02D-06 at cycle   1 NSaved=   1.
 NSaved= 1 IEnMin= 1 EnMin= -76.4177895016674     IErMin= 1 ErrMin= 9.02D-06
 ErrMax= 9.02D-06  0.00D+00 EMaxC= 1.00D-01 BMatC= 1.01D-09 BMatP= 1.01D-09
 IDIUse=1 WtCom= 1.00D+00 WtEn= 0.00D+00
 Coeff-Com:  0.100D+01
 Coeff:      0.100D+01
 Gap=     0.490 Goal=   None    Shift=    0.000
 RMSDP=4.23D-06 MaxDP=4.70D-05 DE=-9.43D-06 OVMax= 1.36D-05

 Cycle   8  Pass 1  IDiag  1:
 E= -76.4177895026442     Delta-E=       -0.000000000977 Rises=F Damp=F
 DIIS: error= 9.39D-07 at cycle   2 NSaved=   2.
 NSaved= 2 IEnMin= 2 EnMin= -76.4177895026442     IErMin= 2 ErrMin= 9.39D-07
 ErrMax= 9.39D-07  0.00D+00 EMaxC= 1.00D-01 BMatC= 1.80D-11 BMatP= 1.01D-09
 IDIUse=1 WtCom= 1.00D+00 WtEn= 0.00D+00
 Coeff-Com: -0.110D+00 0.111D+01
 Coeff:     -0.110D+00 0.111D+01
 Gap=     0.490 Goal=   None    Shift=    0.000
 RMSDP=2.83D-07 MaxDP=2.76D-06 DE=-9.77D-10 OVMax= 4.96D-06

 Cycle   9  Pass 1  IDiag  1:
 E= -76.4177895026881     Delta-E=       -0.000000000044 Rises=F Damp=F
 DIIS: error= 1.82D-07 at cycle   3 NSaved=   3.
 NSaved= 3 IEnMin= 3 EnMin= -76.4177895026881     IErMin= 3 ErrMin= 1.82D-07
 ErrMax= 1.82D-07  0.00D+00 EMaxC= 1.00D-01 BMatC= 7.89D-13 BMatP= 1.80D-11
 IDIUse=1 WtCom= 1.00D+00 WtEn= 0.00D+00
 Coeff-Com:  0.204D-01-0.266D+00 0.125D+01
 Coeff:      0.204D-01-0.266D+00 0.125D+01
 Gap=     0.490 Goal=   None    Shift=    0.000
 RMSDP=7.84D-08 MaxDP=7.11D-07 DE=-4.39D-11 OVMax= 1.65D-06

 Cycle  10  Pass 1  IDiag  1:
 E= -76.4177895026915     Delta-E=       -0.000000000003 Rises=F Damp=F
 DIIS: error= 6.32D-08 at cycle   4 NSaved=   4.
 NSaved= 4 IEnMin= 4 EnMin= -76.4177895026915     IErMin= 4 ErrMin= 6.32D-08
 ErrMax= 6.32D-08  0.00D+00 EMaxC= 1.00D-01 BMatC= 1.00D-13 BMatP= 7.89D-13
 IDIUse=1 WtCom= 1.00D+00 WtEn= 0.00D+00
 Coeff-Com:  0.107D-01-0.118D+00 0.272D+00 0.835D+00
 Coeff:      0.107D-01-0.118D+00 0.272D+00 0.835D+00
 Gap=     0.490 Goal=   None    Shift=    0.000
 RMSDP=1.79D-08 MaxDP=2.25D-07 DE=-3.37D-12 OVMax= 3.74D-07

 Cycle  11  Pass 1  IDiag  1:
 E= -76.4177895026917     Delta-E=       -0.000000000000 Rises=F Damp=F
 DIIS: error= 4.41D-08 at cycle   5 NSaved=   5.
 NSaved= 5 IEnMin= 5 EnMin= -76.4177895026917     IErMin= 5 ErrMin= 4.41D-08
 ErrMax= 4.41D-08  0.00D+00 EMaxC= 1.00D-01 BMatC= 3.50D-14 BMatP= 1.00D-13
 IDIUse=1 WtCom= 1.00D+00 WtEn= 0.00D+00
 Coeff-Com:  0.238D-02-0.219D-01-0.517D-01 0.393D+00 0.678D+00
 Coeff:      0.238D-02-0.219D-01-0.517D-01 0.393D+00 0.678D+00
 Gap=     0.490 Goal=   None    Shift=    0.000
 RMSDP=5.15D-09 MaxDP=5.08D-08 DE=-2.27D-13 OVMax= 8.73D-08

 SCF Done:  E(RwB97XD) =  -76.4177895027     A.U. after   11 cycles
            NFock= 11  Conv=0.52D-08     -V/T= 2.0038
 KE= 7.612596781920D+01 PE=-1.985165860472D+02 EE= 3.725834475086D+01
 Leave Link  502 at Wed Feb  8 14:43:05 2023, MaxMem=   754974720 cpu:               9.3 elap:               4.6
 (Enter /opt/cluster/programs/g16-c.01/g16/l601.exe)
 Copying SCF densities to generalized density rwf, IOpCl= 0 IROHF=0.

 **********************************************************************

            Population analysis using the SCF Density.

 **********************************************************************

 Orbital symmetries:
       Occupied  (A1) (A1) (B2) (A1) (B1)
       Virtual   (A1) (B2) (B2) (A1) (A1) (B1) (B2) (A1) (A2) (A1)
                 (B1) (B2) (B2) (A1) (A1) (B2) (B1) (A2) (A1) (A1)
                 (B2) (B1) (A1) (B2) (A1)
 The electronic state is 1-A1.
 Alpha  occ. eigenvalues --  -19.23171  -1.07930  -0.59762  -0.45072  -0.38128
 Alpha virt. eigenvalues --    0.10845   0.18131   0.44977   0.46917   0.85303
 Alpha virt. eigenvalues --    0.85614   0.94314   1.15866   1.33131   1.41112
 Alpha virt. eigenvalues --    1.55740   1.67499   1.97513   2.07711   2.40471
 Alpha virt. eigenvalues --    2.55750   3.14351   3.21404   3.33373   3.68247
 Alpha virt. eigenvalues --    3.84682   4.87664   5.21667   5.61077  49.93393
          Condensed to atoms (all electrons):
               1          2          3
     1  O    7.895055   0.307255   0.307255
     2  H    0.307255   0.466947  -0.028985
     3  H    0.307255  -0.028985   0.466947
 Mulliken charges:
               1
     1  O   -0.509565
     2  H    0.254783
     3  H    0.254783
 Sum of Mulliken charges =  -0.00000
 Mulliken charges with hydrogens summed into heavy atoms:
               1
     1  O   -0.000000
 Electronic spatial extent (au):  <R**2>=             19.6970
 Charge=             -0.0000 electrons
 Dipole moment (field-independent basis, Debye):
    X=             -0.0000    Y=              0.0000    Z=             -2.0625  Tot=              2.0625
 Quadrupole moment (field-independent basis, Debye-Ang):
   XX=             -7.2848   YY=             -3.9364   ZZ=             -6.1603
   XY=              0.0000   XZ=              0.0000   YZ=             -0.0000
 Traceless Quadrupole moment (field-independent basis, Debye-Ang):
   XX=             -1.4909   YY=              1.8574   ZZ=             -0.3665
   XY=              0.0000   XZ=              0.0000   YZ=             -0.0000
 Octapole moment (field-independent basis, Debye-Ang**2):
  XXX=              0.0000  YYY=              0.0000  ZZZ=             -1.1302  XYY=             -0.0000
  XXY=             -0.0000  XXZ=             -0.2869  XZZ=              0.0000  YZZ=              0.0000
  YYZ=             -1.4206  XYZ=             -0.0000
 Hexadecapole moment (field-independent basis, Debye-Ang**3):
 XXXX=             -5.3908 YYYY=             -6.0781 ZZZZ=             -6.5271 XXXY=             -0.0000
 XXXZ=             -0.0000 YYYX=             -0.0000 YYYZ=             -0.0000 ZZZX=             -0.0000
 ZZZY=              0.0000 XXYY=             -2.2941 XXZZ=             -2.0402 YYZZ=             -1.7593
 XXYZ=              0.0000 YYXZ=              0.0000 ZZXY=             -0.0000
 N-N= 8.714483974419D+00 E-N=-1.985165870686D+02  KE= 7.612596781920D+01
 Symmetry A1   KE= 6.799034137643D+01
 Symmetry A2   KE= 2.384842525748D-35
 Symmetry B1   KE= 4.642380615277D+00
 Symmetry B2   KE= 3.493245827502D+00
 No NMR shielding tensors so no spin-rotation constants.
 Leave Link  601 at Wed Feb  8 14:43:06 2023, MaxMem=   754974720 cpu:               1.5 elap:               0.8
 (Enter /opt/cluster/programs/g16-c.01/g16/l9999.exe)
 Unable to Open any file for archive entry.
 1\1\GINC-NODE63\SP\RwB97XD\6-311G(d,p)\H2O1\BOITTIER\08-Feb-2023\0\\#P
  wB97XD/6-311g** scf(maxcycle=200)\\Gaussian input\\0,1\O,0,0.,0.11751
 ,0.\H,0,0.7973622306,-0.5007896629,0.\H,0,-0.8388659611,-0.443190365,0
 .\\Version=ES64L-G16RevC.01\State=1-A1\HF=-76.4177895\RMSD=5.151e-09\D
 ipole=-0.0285472,-0.8109428,0.\Quadrupole=1.3788999,-0.2704345,-1.1084
 654,-0.0581327,0.,0.\PG=C02V [C2(O1),SGV(H2)]\\@
 The archive entry for this job was punched.


 LORD, MAN... WERE YE BUT WHYLES WHERE I AM, 
 THE GENTILES YE WAD NE'ER ENVY 'EM.        
 IT'S TRUE, THEY NEEDNA STARVE OR SWEAT,     
 THRO' WINTER'S CAULD OR SIMMER'S HEAT...  
 THEY'VE NAE SAIR WARK TO CRAZE THEIR BANES, 
 AND FILL AULD AGE WITH GRIPS AN' GRANES...  
                                             
 BUT HUMAN BODIES ARE SIC FOOLS              
 FOR A' THEIR COLLEGES AND SCHOOLS,           
 THAT WHEN NAE REAL ILLS PERPLEX THEM,       
 THEY MAK ENOW THEMSELVES TO VEX THEM,       
 AN' AYE THE LESS THEY HAE TO STURT THEM,    
 IN LIKE PROPORTION LESS WILL HURT THEM....  
                                             
                (ROBERT BURNS 'THE TWA DOGS')
 Job cpu time:       0 days  0 hours  0 minutes 15.4 seconds.
 Elapsed time:       0 days  0 hours  0 minutes  7.4 seconds.
 File lengths (MBytes):  RWF=      6 Int=      0 D2E=      0 Chk=      1 Scr=      1
 Normal termination of Gaussian 16 at Wed Feb  8 14:43:06 2023.
