 Entering Gaussian System, Link 0=/opt/cluster/programs/g16-c.01/g16/g16
 Input=/scratch/boittier/jobs/tmp.7261829/gaussian_151_water_ccsdt_atz.com
 Output=/scratch/boittier/jobs/tmp.7261829/gaussian_151_water_ccsdt_atz.out
 Initial command:
 /opt/cluster/programs/g16-c.01/g16/l1.exe "/scratch/boittier/jobs/tmp.7261829/Gau-51346.inp" -scrdir="/scratch/boittier/jobs/tmp.7261829/"
 Entering Link 1 = /opt/cluster/programs/g16-c.01/g16/l1.exe PID=     51347.
  
 Copyright (c) 1988-2019, Gaussian, Inc.  All Rights Reserved.
  
 This is part of the Gaussian(R) 16 program.  It is based on
 the Gaussian(R) 09 system (copyright 2009, Gaussian, Inc.),
 the Gaussian(R) 03 system (copyright 2003, Gaussian, Inc.),
 the Gaussian(R) 98 system (copyright 1998, Gaussian, Inc.),
 the Gaussian(R) 94 system (copyright 1995, Gaussian, Inc.),
 the Gaussian 92(TM) system (copyright 1992, Gaussian, Inc.),
 the Gaussian 90(TM) system (copyright 1990, Gaussian, Inc.),
 the Gaussian 88(TM) system (copyright 1988, Gaussian, Inc.),
 the Gaussian 86(TM) system (copyright 1986, Carnegie Mellon
 University), and the Gaussian 82(TM) system (copyright 1983,
 Carnegie Mellon University). Gaussian is a federally registered
 trademark of Gaussian, Inc.
  
 This software contains proprietary and confidential information,
 including trade secrets, belonging to Gaussian, Inc.
  
 This software is provided under written license and may be
 used, copied, transmitted, or stored only in accord with that
 written license.
  
 The following legend is applicable only to US Government
 contracts under FAR:
  
                    RESTRICTED RIGHTS LEGEND
  
 Use, reproduction and disclosure by the US Government is
 subject to restrictions as set forth in subparagraphs (a)
 and (c) of the Commercial Computer Software - Restricted
 Rights clause in FAR 52.227-19.
  
 Gaussian, Inc.
 340 Quinnipiac St., Bldg. 40, Wallingford CT 06492
  
  
 ---------------------------------------------------------------
 Warning -- This program may not be used in any manner that
 competes with the business of Gaussian, Inc. or will provide
 assistance to any competitor of Gaussian, Inc.  The licensee
 of this program is prohibited from giving any competitor of
 Gaussian, Inc. access to this program.  By using this program,
 the user acknowledges that Gaussian, Inc. is engaged in the
 business of creating and licensing software in the field of
 computational chemistry and represents and warrants to the
 licensee that it is not a competitor of Gaussian, Inc. and that
 it will not use this program in any manner prohibited above.
 ---------------------------------------------------------------
  

 Cite this work as:
 Gaussian 16, Revision C.01,
 M. J. Frisch, G. W. Trucks, H. B. Schlegel, G. E. Scuseria, 
 M. A. Robb, J. R. Cheeseman, G. Scalmani, V. Barone, 
 G. A. Petersson, H. Nakatsuji, X. Li, M. Caricato, A. V. Marenich, 
 J. Bloino, B. G. Janesko, R. Gomperts, B. Mennucci, H. P. Hratchian, 
 J. V. Ortiz, A. F. Izmaylov, J. L. Sonnenberg, D. Williams-Young, 
 F. Ding, F. Lipparini, F. Egidi, J. Goings, B. Peng, A. Petrone, 
 T. Henderson, D. Ranasinghe, V. G. Zakrzewski, J. Gao, N. Rega, 
 G. Zheng, W. Liang, M. Hada, M. Ehara, K. Toyota, R. Fukuda, 
 J. Hasegawa, M. Ishida, T. Nakajima, Y. Honda, O. Kitao, H. Nakai, 
 T. Vreven, K. Throssell, J. A. Montgomery, Jr., J. E. Peralta, 
 F. Ogliaro, M. J. Bearpark, J. J. Heyd, E. N. Brothers, K. N. Kudin, 
 V. N. Staroverov, T. A. Keith, R. Kobayashi, J. Normand, 
 K. Raghavachari, A. P. Rendell, J. C. Burant, S. S. Iyengar, 
 J. Tomasi, M. Cossi, J. M. Millam, M. Klene, C. Adamo, R. Cammi, 
 J. W. Ochterski, R. L. Martin, K. Morokuma, O. Farkas, 
 J. B. Foresman, and D. J. Fox, Gaussian, Inc., Wallingford CT, 2019.
 
 ******************************************
 Gaussian 16:  ES64L-G16RevC.01  3-Jul-2019
                 8-Feb-2023 
 ******************************************
 %nproc=4
 Will use up to    4 processors via shared memory.
 %mem=5760MB
 %chk=gaussian_151_water_ccsdt_atz.chk
 ----------------------------------------
 #P CCSD(T)/aug-cc-pVTZ scf(maxcycle=200)
 ----------------------------------------
 1/38=1,172=1/1;
 2/12=2,17=6,18=5,40=1/2;
 3/5=16,6=1,7=10,11=9,25=1,30=1/1,2,3;
 4//1;
 5/5=2,7=200,38=5/2;
 8/6=4,9=120000,10=1/1,4;
 9/5=7,14=2/13;
 6/7=2,8=2,9=2,10=2/1;
 99/5=1,9=1/99;
 Leave Link    1 at Wed Feb  8 13:56:44 2023, MaxMem=   754974720 cpu:               0.2 elap:               0.1
 (Enter /opt/cluster/programs/g16-c.01/g16/l101.exe)
 --------------
 Gaussian input
 --------------
 Symbolic Z-matrix:
 Charge =  0 Multiplicity = 1
 O                     0.        0.11751   0. 
 H                     0.79736  -0.50079   0. 
 H                    -0.77821  -0.44291   0. 
 
 ITRead=  0  0  0
 MicOpt= -1 -1 -1
 NAtoms=      3 NQM=        3 NQMF=       0 NMMI=      0 NMMIF=      0
                NMic=       0 NMicF=      0.
                    Isotopes and Nuclear Properties:
 (Nuclear quadrupole moments (NQMom) in fm**2, nuclear magnetic moments (NMagM)
  in nuclear magnetons)

  Atom         1           2           3
 IAtWgt=          16           1           1
 AtmWgt=  15.9949146   1.0078250   1.0078250
 NucSpn=           0           1           1
 AtZEff=  -0.0000000  -0.0000000  -0.0000000
 NQMom=    0.0000000   0.0000000   0.0000000
 NMagM=    0.0000000   2.7928460   2.7928460
 AtZNuc=   8.0000000   1.0000000   1.0000000
 Leave Link  101 at Wed Feb  8 13:56:44 2023, MaxMem=   754974720 cpu:               0.4 elap:               0.2
 (Enter /opt/cluster/programs/g16-c.01/g16/l202.exe)
                          Input orientation:                          
 ---------------------------------------------------------------------
 Center     Atomic      Atomic             Coordinates (Angstroms)
 Number     Number       Type             X           Y           Z
 ---------------------------------------------------------------------
      1          8           0        0.000000    0.117510    0.000000
      2          1           0        0.797362   -0.500790    0.000000
      3          1           0       -0.778213   -0.442906    0.000000
 ---------------------------------------------------------------------
                    Distance matrix (angstroms):
                    1          2          3
     1  O    0.000000
     2  H    1.009000   0.000000
     3  H    0.959000   1.576638   0.000000
 Stoichiometry    H2O
 Framework group  CS[SG(H2O)]
 Deg. of freedom     3
 Full point group                 CS      NOp   2
 Largest Abelian subgroup         CS      NOp   2
 Largest concise Abelian subgroup C1      NOp   1
                         Standard orientation:                         
 ---------------------------------------------------------------------
 Center     Atomic      Atomic             Coordinates (Angstroms)
 Number     Number       Type             X           Y           Z
 ---------------------------------------------------------------------
      1          8           0        0.000000    0.117887   -0.000000
      2          1           0        0.787213   -0.513283    0.000000
      3          1           0       -0.787213   -0.429814    0.000000
 ---------------------------------------------------------------------
 Rotational constants (GHZ):         817.1200287         402.3518652         269.6001190
 Leave Link  202 at Wed Feb  8 13:56:44 2023, MaxMem=   754974720 cpu:               0.2 elap:               0.1
 (Enter /opt/cluster/programs/g16-c.01/g16/l301.exe)
 Standard basis: Aug-CC-pVTZ (5D, 7F)
 Ernie: Thresh=  0.10000D-02 Tol=  0.10000D-05 Strict=F.
 Ernie:  3 primitive shells out of 52 were deleted.
 There are    73 symmetry adapted cartesian basis functions of A'  symmetry.
 There are    32 symmetry adapted cartesian basis functions of A"  symmetry.
 There are    62 symmetry adapted basis functions of A'  symmetry.
 There are    30 symmetry adapted basis functions of A"  symmetry.
    92 basis functions,   126 primitive gaussians,   105 cartesian basis functions
     5 alpha electrons        5 beta electrons
       nuclear repulsion energy         8.9457017307 Hartrees.
 IExCor=    0 DFT=F Ex=HF Corr=None ExCW=0 ScaHFX=  1.000000
 ScaDFX=  1.000000  1.000000  1.000000  1.000000 ScalE2=  1.000000  1.000000
 IRadAn=      5 IRanWt=     -1 IRanGd=            0 ICorTp=0 IEmpDi=  4
 NAtoms=    3 NActive=    3 NUniq=    3 SFac= 1.00D+00 NAtFMM=   60 NAOKFM=F Big=F
 Integral buffers will be    131072 words long.
 Raffenetti 1 integral format.
 Two-electron integral symmetry is turned on.
 Leave Link  301 at Wed Feb  8 13:56:44 2023, MaxMem=   754974720 cpu:               0.3 elap:               0.1
 (Enter /opt/cluster/programs/g16-c.01/g16/l302.exe)
 NPDir=0 NMtPBC=     1 NCelOv=     1 NCel=       1 NClECP=     1 NCelD=      1
         NCelK=      1 NCelE2=     1 NClLst=     1 CellRange=     0.0.
 One-electron integrals computed using PRISM.
 One-electron integral symmetry used in STVInt
 NBasis=    92 RedAO= T EigKep=  3.90D-04  NBF=    62    30
 NBsUse=    92 1.00D-06 EigRej= -1.00D+00 NBFU=    62    30
 Leave Link  302 at Wed Feb  8 13:56:46 2023, MaxMem=   754974720 cpu:               3.0 elap:               1.5
 (Enter /opt/cluster/programs/g16-c.01/g16/l303.exe)
 DipDrv:  MaxL=1.
 Leave Link  303 at Wed Feb  8 13:56:46 2023, MaxMem=   754974720 cpu:               0.2 elap:               0.1
 (Enter /opt/cluster/programs/g16-c.01/g16/l401.exe)
 ExpMin= 2.53D-02 ExpMax= 1.53D+04 ExpMxC= 5.22D+02 IAcc=3 IRadAn=         5 AccDes= 0.00D+00
 Harris functional with IExCor=  205 and IRadAn=       5 diagonalized for initial guess.
 HarFok:  IExCor=  205 AccDes= 0.00D+00 IRadAn=         5 IDoV= 1 UseB2=F ITyADJ=14
 ICtDFT=  3500011 ScaDFX=  1.000000  1.000000  1.000000  1.000000
 FoFCou: FMM=F IPFlag=           0 FMFlag=      100000 FMFlg1=           0
         NFxFlg=           0 DoJE=T BraDBF=F KetDBF=T FulRan=T
         wScrn=  0.000000 ICntrl=       500 IOpCl=  0 I1Cent=   200000004 NGrid=           0
         NMat0=    1 NMatS0=      1 NMatT0=    0 NMatD0=    1 NMtDS0=    0 NMtDT0=    0
 Petite list used in FoFCou.
 Harris En= -76.1501943525640    
 JPrj=0 DoOrth=F DoCkMO=F.
 Initial guess orbital symmetries:
       Occupied  (A') (A') (A') (A') (A")
       Virtual   (A') (A') (A') (A") (A') (A') (A') (A') (A") (A')
                 (A") (A') (A') (A') (A') (A') (A') (A") (A") (A')
                 (A") (A') (A") (A') (A") (A') (A') (A') (A') (A")
                 (A') (A') (A") (A') (A") (A') (A") (A') (A') (A')
                 (A') (A") (A") (A') (A') (A") (A') (A') (A") (A')
                 (A') (A') (A") (A') (A') (A") (A") (A') (A') (A")
                 (A") (A") (A') (A') (A') (A') (A") (A') (A') (A')
                 (A") (A') (A') (A') (A") (A') (A") (A") (A') (A")
                 (A") (A') (A') (A') (A') (A') (A')
 The electronic state of the initial guess is 1-A'.
 Leave Link  401 at Wed Feb  8 13:56:47 2023, MaxMem=   754974720 cpu:               2.4 elap:               1.2
 (Enter /opt/cluster/programs/g16-c.01/g16/l502.exe)
 Keep R1 ints in memory in symmetry-blocked form, NReq=13818732.
 FoFCou: FMM=F IPFlag=           0 FMFlag=           0 FMFlg1=           0
         NFxFlg=           0 DoJE=F BraDBF=F KetDBF=F FulRan=T
         wScrn=  0.000000 ICntrl=       600 IOpCl=  0 I1Cent=           0 NGrid=           0
         NMat0=    1 NMatS0=   4278 NMatT0=    0 NMatD0=    1 NMtDS0=    0 NMtDT0=    0
 Petite list used in FoFCou.
 Closed shell SCF:
 Using DIIS extrapolation, IDIIS=  1040.
 NGot=   754974720 LenX=   750285684 LenY=   750274218
 Requested convergence on RMS density matrix=1.00D-08 within 200 cycles.
 Requested convergence on MAX density matrix=1.00D-06.
 Requested convergence on             energy=1.00D-06.
 No special actions if energy rises.

 Cycle   1  Pass 1  IDiag  1:
 E= -75.9687129217980    
 DIIS: error= 6.01D-02 at cycle   1 NSaved=   1.
 NSaved= 1 IEnMin= 1 EnMin= -75.9687129217980     IErMin= 1 ErrMin= 6.01D-02
 ErrMax= 6.01D-02  0.00D+00 EMaxC= 1.00D-01 BMatC= 1.99D-01 BMatP= 1.99D-01
 IDIUse=3 WtCom= 3.99D-01 WtEn= 6.01D-01
 Coeff-Com:  0.100D+01
 Coeff-En:   0.100D+01
 Coeff:      0.100D+01
 Gap=     0.453 Goal=   None    Shift=    0.000
 GapD=    0.453 DampG=2.000 DampE=0.500 DampFc=1.0000 IDamp=-1.
 RMSDP=2.14D-03 MaxDP=4.78D-02              OVMax= 1.25D-01

 Cycle   2  Pass 1  IDiag  1:
 E= -76.0185442946800     Delta-E=       -0.049831372882 Rises=F Damp=F
 DIIS: error= 4.13D-02 at cycle   2 NSaved=   2.
 NSaved= 2 IEnMin= 2 EnMin= -76.0185442946800     IErMin= 2 ErrMin= 4.13D-02
 ErrMax= 4.13D-02  0.00D+00 EMaxC= 1.00D-01 BMatC= 6.04D-02 BMatP= 1.99D-01
 IDIUse=3 WtCom= 5.87D-01 WtEn= 4.13D-01
 Coeff-Com:  0.327D+00 0.673D+00
 Coeff-En:   0.219D+00 0.781D+00
 Coeff:      0.282D+00 0.718D+00
 Gap=     0.564 Goal=   None    Shift=    0.000
 RMSDP=1.32D-03 MaxDP=3.44D-02 DE=-4.98D-02 OVMax= 6.62D-02

 Cycle   3  Pass 1  IDiag  1:
 E= -76.0545216715420     Delta-E=       -0.035977376862 Rises=F Damp=F
 DIIS: error= 8.54D-03 at cycle   3 NSaved=   3.
 NSaved= 3 IEnMin= 3 EnMin= -76.0545216715420     IErMin= 3 ErrMin= 8.54D-03
 ErrMax= 8.54D-03  0.00D+00 EMaxC= 1.00D-01 BMatC= 2.94D-03 BMatP= 6.04D-02
 IDIUse=3 WtCom= 9.15D-01 WtEn= 8.54D-02
 Coeff-Com: -0.314D-01 0.150D+00 0.882D+00
 Coeff-En:   0.000D+00 0.000D+00 0.100D+01
 Coeff:     -0.287D-01 0.137D+00 0.892D+00
 Gap=     0.534 Goal=   None    Shift=    0.000
 RMSDP=2.25D-04 MaxDP=4.24D-03 DE=-3.60D-02 OVMax= 1.32D-02

 Cycle   4  Pass 1  IDiag  1:
 E= -76.0563867726975     Delta-E=       -0.001865101155 Rises=F Damp=F
 DIIS: error= 7.76D-04 at cycle   4 NSaved=   4.
 NSaved= 4 IEnMin= 4 EnMin= -76.0563867726975     IErMin= 4 ErrMin= 7.76D-04
 ErrMax= 7.76D-04  0.00D+00 EMaxC= 1.00D-01 BMatC= 1.68D-05 BMatP= 2.94D-03
 IDIUse=3 WtCom= 9.92D-01 WtEn= 7.76D-03
 Coeff-Com:  0.695D-02-0.566D-01-0.242D+00 0.129D+01
 Coeff-En:   0.000D+00 0.000D+00 0.000D+00 0.100D+01
 Coeff:      0.689D-02-0.562D-01-0.240D+00 0.129D+01
 Gap=     0.536 Goal=   None    Shift=    0.000
 RMSDP=4.10D-05 MaxDP=7.70D-04 DE=-1.87D-03 OVMax= 2.43D-03

 Cycle   5  Pass 1  IDiag  1:
 E= -76.0564153838673     Delta-E=       -0.000028611170 Rises=F Damp=F
 DIIS: error= 2.15D-04 at cycle   5 NSaved=   5.
 NSaved= 5 IEnMin= 5 EnMin= -76.0564153838673     IErMin= 5 ErrMin= 2.15D-04
 ErrMax= 2.15D-04  0.00D+00 EMaxC= 1.00D-01 BMatC= 8.32D-07 BMatP= 1.68D-05
 IDIUse=3 WtCom= 9.98D-01 WtEn= 2.15D-03
 Coeff-Com:  0.534D-03 0.819D-03-0.107D-02-0.261D+00 0.126D+01
 Coeff-En:   0.000D+00 0.000D+00 0.000D+00 0.000D+00 0.100D+01
 Coeff:      0.532D-03 0.817D-03-0.106D-02-0.260D+00 0.126D+01
 Gap=     0.537 Goal=   None    Shift=    0.000
 RMSDP=1.25D-05 MaxDP=2.62D-04 DE=-2.86D-05 OVMax= 7.98D-04

 Cycle   6  Pass 1  IDiag  1:
 E= -76.0564175050760     Delta-E=       -0.000002121209 Rises=F Damp=F
 DIIS: error= 3.41D-05 at cycle   6 NSaved=   6.
 NSaved= 6 IEnMin= 6 EnMin= -76.0564175050760     IErMin= 6 ErrMin= 3.41D-05
 ErrMax= 3.41D-05  0.00D+00 EMaxC= 1.00D-01 BMatC= 2.59D-08 BMatP= 8.32D-07
 IDIUse=1 WtCom= 1.00D+00 WtEn= 0.00D+00
 Coeff-Com: -0.330D-03 0.168D-02 0.742D-02 0.120D-01-0.315D+00 0.129D+01
 Coeff:     -0.330D-03 0.168D-02 0.742D-02 0.120D-01-0.315D+00 0.129D+01
 Gap=     0.537 Goal=   None    Shift=    0.000
 RMSDP=2.67D-06 MaxDP=6.34D-05 DE=-2.12D-06 OVMax= 1.76D-04

 Cycle   7  Pass 1  IDiag  1:
 E= -76.0564175861766     Delta-E=       -0.000000081101 Rises=F Damp=F
 DIIS: error= 5.57D-06 at cycle   7 NSaved=   7.
 NSaved= 7 IEnMin= 7 EnMin= -76.0564175861766     IErMin= 7 ErrMin= 5.57D-06
 ErrMax= 5.57D-06  0.00D+00 EMaxC= 1.00D-01 BMatC= 1.28D-09 BMatP= 2.59D-08
 IDIUse=1 WtCom= 1.00D+00 WtEn= 0.00D+00
 Coeff-Com:  0.309D-04-0.372D-03-0.159D-02 0.157D-01-0.213D-01-0.180D+00
 Coeff-Com:  0.119D+01
 Coeff:      0.309D-04-0.372D-03-0.159D-02 0.157D-01-0.213D-01-0.180D+00
 Coeff:      0.119D+01
 Gap=     0.537 Goal=   None    Shift=    0.000
 RMSDP=3.90D-07 MaxDP=9.27D-06 DE=-8.11D-08 OVMax= 3.31D-05

 Cycle   8  Pass 1  IDiag  1:
 E= -76.0564175889452     Delta-E=       -0.000000002769 Rises=F Damp=F
 DIIS: error= 1.40D-06 at cycle   8 NSaved=   8.
 NSaved= 8 IEnMin= 8 EnMin= -76.0564175889452     IErMin= 8 ErrMin= 1.40D-06
 ErrMax= 1.40D-06  0.00D+00 EMaxC= 1.00D-01 BMatC= 6.89D-11 BMatP= 1.28D-09
 IDIUse=1 WtCom= 1.00D+00 WtEn= 0.00D+00
 Coeff-Com:  0.883D-05 0.117D-04 0.983D-04-0.517D-02 0.216D-01-0.112D-01
 Coeff-Com: -0.369D+00 0.136D+01
 Coeff:      0.883D-05 0.117D-04 0.983D-04-0.517D-02 0.216D-01-0.112D-01
 Coeff:     -0.369D+00 0.136D+01
 Gap=     0.537 Goal=   None    Shift=    0.000
 RMSDP=1.27D-07 MaxDP=2.70D-06 DE=-2.77D-09 OVMax= 8.39D-06

 Cycle   9  Pass 1  IDiag  1:
 E= -76.0564175891222     Delta-E=       -0.000000000177 Rises=F Damp=F
 DIIS: error= 2.16D-07 at cycle   9 NSaved=   9.
 NSaved= 9 IEnMin= 9 EnMin= -76.0564175891222     IErMin= 9 ErrMin= 2.16D-07
 ErrMax= 2.16D-07  0.00D+00 EMaxC= 1.00D-01 BMatC= 1.19D-12 BMatP= 6.89D-11
 IDIUse=1 WtCom= 1.00D+00 WtEn= 0.00D+00
 Coeff-Com: -0.219D-05 0.469D-05 0.525D-05 0.684D-03-0.334D-02 0.404D-02
 Coeff-Com:  0.592D-01-0.312D+00 0.125D+01
 Coeff:     -0.219D-05 0.469D-05 0.525D-05 0.684D-03-0.334D-02 0.404D-02
 Coeff:      0.592D-01-0.312D+00 0.125D+01
 Gap=     0.537 Goal=   None    Shift=    0.000
 RMSDP=2.02D-08 MaxDP=3.95D-07 DE=-1.77D-10 OVMax= 9.48D-07

 Cycle  10  Pass 1  IDiag  1:
 E= -76.0564175891252     Delta-E=       -0.000000000003 Rises=F Damp=F
 DIIS: error= 4.42D-08 at cycle  10 NSaved=  10.
 NSaved=10 IEnMin=10 EnMin= -76.0564175891252     IErMin=10 ErrMin= 4.42D-08
 ErrMax= 4.42D-08  0.00D+00 EMaxC= 1.00D-01 BMatC= 5.69D-14 BMatP= 1.19D-12
 IDIUse=1 WtCom= 1.00D+00 WtEn= 0.00D+00
 Coeff-Com:  0.951D-07-0.135D-05-0.494D-05 0.556D-04-0.956D-04-0.636D-03
 Coeff-Com:  0.473D-02-0.672D-04-0.222D+00 0.122D+01
 Coeff:      0.951D-07-0.135D-05-0.494D-05 0.556D-04-0.956D-04-0.636D-03
 Coeff:      0.473D-02-0.672D-04-0.222D+00 0.122D+01
 Gap=     0.537 Goal=   None    Shift=    0.000
 RMSDP=4.73D-09 MaxDP=1.06D-07 DE=-2.97D-12 OVMax= 2.36D-07

 SCF Done:  E(RHF) =  -76.0564175891     A.U. after   10 cycles
            NFock= 10  Conv=0.47D-08     -V/T= 2.0026
 KE= 7.585798853161D+01 PE=-1.984602963136D+02 EE= 3.760018846213D+01
 Leave Link  502 at Wed Feb  8 13:56:55 2023, MaxMem=   754974720 cpu:              16.2 elap:               8.1
 (Enter /opt/cluster/programs/g16-c.01/g16/l801.exe)
 Windowed orbitals will be sorted by symmetry type.
 ExpMin= 2.53D-02 ExpMax= 1.53D+04 ExpMxC= 5.22D+02 IAcc=3 IRadAn=         5 AccDes= 0.00D+00
 HarFok:  IExCor=  205 AccDes= 0.00D+00 IRadAn=         5 IDoV=-2 UseB2=F ITyADJ=14
 ICtDFT= 12500011 ScaDFX=  1.000000  1.000000  1.000000  1.000000
 Largest valence mixing into a core orbital is  1.12D-04
 Largest core mixing into a valence orbital is  1.78D-05
 Range of M.O.s used for correlation:     2    92
 NBasis=    92 NAE=     5 NBE=     5 NFC=     1 NFV=     0
 NROrb=     91 NOA=     4 NOB=     4 NVA=    87 NVB=    87

 **** Warning!!: The largest alpha MO coefficient is  0.14891456D+02

 Leave Link  801 at Wed Feb  8 13:56:55 2023, MaxMem=   754974720 cpu:               0.6 elap:               0.3
 (Enter /opt/cluster/programs/g16-c.01/g16/l804.exe)
 Closed-shell transformation, MDV=   754974720 ITran=4 ISComp=2.
 Unit  1 TFree=        277501 TCopy=        343607.
 Semi-Direct transformation.
 ModeAB=           2 MOrb=             4 LenV=     754586778
 LASXX=       736380 LTotXX=      736380 LenRXX=      736380
 LTotAB=      763744 MaxLAS=     2025660 LenRXY=     2025660
 NonZer=     2107560 LenScr=     3929600 LnRSAI=           0
 LnScr1=           0 LExtra=           0 Total=      6691640
 MaxDsk=          -1 SrtSym=           F ITran=            4
 DoSDTr:  NPSUse=  4
 JobTyp=0 Pass  1:  I=   1 to   4.
 (rs|ai) integrals will be sorted in core.
 Complete sort for first half transformation.
 First half transformation complete.
 Complete sort for second half transformation.
 Second half transformation complete.
 Spin components of T(2) and E(2):
     alpha-alpha T2 =       0.8334954748D-02 E2=     -0.3279045445D-01
     alpha-beta  T2 =       0.4859757912D-01 E2=     -0.2047703953D+00
     beta-beta   T2 =       0.8334954748D-02 E2=     -0.3279045445D-01
 ANorm=    0.1032117963D+01
 E2 =    -0.2703513042D+00 EUMP2 =    -0.76326768893360D+02
 Leave Link  804 at Wed Feb  8 13:56:56 2023, MaxMem=   754974720 cpu:               2.3 elap:               0.6
 (Enter /opt/cluster/programs/g16-c.01/g16/l913.exe)
 CIDS:  MDV=   754974720.
 Frozen-core window:  NFC=   1 NFV=   0.
 IFCWin=0 IBDFC=1 NFBD=     0     0 NFCmp=     0     0 NFFFC=     0     0
 Using DD3R+UMP44R for 1st iteration.
 Using DD4RQ for 2nd and later iterations.
 Keep R2 and R3 ints in memory in symmetry-blocked form, NReq=13979827.
 FoFCou: FMM=F IPFlag=           0 FMFlag=           0 FMFlg1=           0
         NFxFlg=           0 DoJE=F BraDBF=F KetDBF=F FulRan=T
         wScrn=  0.000000 ICntrl=       600 IOpCl=  0 I1Cent=           0 NGrid=           0
         NMat0=    1 NMatS0=   4278 NMatT0=    0 NMatD0=    1 NMtDS0=    0 NMtDT0=    0
 Petite list used in FoFCou.
 CIDS: In Core Option IDoMem=           1.
 CCSD(T)
 =======
 Iterations=  50 Convergence= 0.100D-06
 Produce multiple copies of IABC intergrals
 Iteration Nr.   1
 **********************
 DD1Dir will call FoFMem   1 times, MxPair=        20
 NAB=    10 NAA=     0 NBB=     0.
 MP4(R+Q)=  0.41586664D-02
 Maximum subspace dimension=  5
 A-vector RMS=  2.9625390D-03 Max=  1.2836384D-02 conv= 1.00D-05.
 RLE energy=       -0.2683717324
 E3=       -0.22075857D-02        EUMP3=      -0.76328976479D+02
 E4(DQ)=   -0.78276084D-03        UMP4(DQ)=   -0.76329759240D+02
 E4(SDQ)=  -0.27928592D-02        UMP4(SDQ)=  -0.76331769338D+02
 VARIATIONAL ENERGIES WITH THE FIRST-ORDER WAVEFUNCTION:
 DE(Corr)= -0.26835714     E(Corr)=     -76.324774727    
 NORM(A)=   0.10318479D+01
 Iteration Nr.   2
 **********************
 DD1Dir will call FoFMem   1 times, MxPair=        20
 NAB=    10 NAA=     0 NBB=     0.
 A-vector RMS=  3.2515749D-04 Max=  2.3118509D-03 conv= 1.00D-05.
 RLE energy=       -0.2744594938
 DE(Corr)= -0.27405417     E(CORR)=     -76.330471763     Delta=-5.70D-03
 NORM(A)=   0.10341284D+01
 Iteration Nr.   3
 **********************
 DD1Dir will call FoFMem   1 times, MxPair=        20
 NAB=    10 NAA=     0 NBB=     0.
 A-vector RMS=  4.2116061D-04 Max=  2.3827548D-03 conv= 1.00D-05.
 RLE energy=       -0.2747994912
 DE(Corr)= -0.27439142     E(CORR)=     -76.330809012     Delta=-3.37D-04
 NORM(A)=   0.10345941D+01
 Iteration Nr.   4
 **********************
 DD1Dir will call FoFMem   1 times, MxPair=        20
 NAB=    10 NAA=     0 NBB=     0.
 A-vector RMS=  6.7216812D-05 Max=  4.0222949D-04 conv= 1.00D-05.
 RLE energy=       -0.2748367637
 DE(Corr)= -0.27480572     E(CORR)=     -76.331223307     Delta=-4.14D-04
 NORM(A)=   0.10347180D+01
 Iteration Nr.   5
 **********************
 DD1Dir will call FoFMem   1 times, MxPair=        20
 NAB=    10 NAA=     0 NBB=     0.
 A-vector RMS=  3.2808495D-05 Max=  2.0380777D-04 conv= 1.00D-05.
 RLE energy=       -0.2748504277
 DE(Corr)= -0.27484430     E(CORR)=     -76.331261884     Delta=-3.86D-05
 NORM(A)=   0.10347433D+01
 Iteration Nr.   6
 **********************
 DD1Dir will call FoFMem   1 times, MxPair=        20
 NAB=    10 NAA=     0 NBB=     0.
 A-vector RMS=  7.7603157D-06 Max=  4.2294251D-05 conv= 1.00D-05.
 RLE energy=       -0.2748463572
 DE(Corr)= -0.27484744     E(CORR)=     -76.331265031     Delta=-3.15D-06
 NORM(A)=   0.10347455D+01
 Iteration Nr.   7
 **********************
 DD1Dir will call FoFMem   1 times, MxPair=        20
 NAB=    10 NAA=     0 NBB=     0.
 A-vector RMS=  2.8537226D-06 Max=  1.4874364D-05 conv= 1.00D-05.
 RLE energy=       -0.2748464588
 DE(Corr)= -0.27484746     E(CORR)=     -76.331265052     Delta=-2.09D-08
 NORM(A)=   0.10347462D+01
 Iteration Nr.   8
 **********************
 DD1Dir will call FoFMem   1 times, MxPair=        20
 NAB=    10 NAA=     0 NBB=     0.
 A-vector RMS=  1.0785453D-06 Max=  5.1069982D-06 conv= 1.00D-05.
 RLE energy=       -0.2748470429
 DE(Corr)= -0.27484717     E(CORR)=     -76.331264761     Delta= 2.91D-07
 NORM(A)=   0.10347466D+01
 Iteration Nr.   9
 **********************
 DD1Dir will call FoFMem   1 times, MxPair=        20
 NAB=    10 NAA=     0 NBB=     0.
 A-vector RMS=  3.0879995D-07 Max=  1.7694873D-06 conv= 1.00D-05.
 RLE energy=       -0.2748471658
 DE(Corr)= -0.27484719     E(CORR)=     -76.331264775     Delta=-1.44D-08
 NORM(A)=   0.10347468D+01
 CI/CC converged in    9 iterations to DelEn=-1.44D-08 Conv= 1.00D-07 ErrA1= 3.09D-07 Conv= 1.00D-05
 Wavefunction amplitudes converged. E(Corr)=     -76.331264775    
 Largest amplitude= 2.19D-02
 IPart=  1 IA=    6   11.23% done.
 IPart=  1 IA=   11   21.79% done.
 IPart=  3 IA=   16   31.68% done.
 IPart=  3 IA=   21   40.90% done.
 IPart=  2 IA=   27   51.08% done.
 IPart=  4 IA=   33   60.30% done.
 IPart=  1 IA=   41   71.10% done.
 IPart=  3 IA=   49   80.19% done.
 IPart=  3 IA=   61   90.62% done.
 Time for triples=        7.01 seconds.
 T4(CCSD)= -0.92290479D-02
 T5(CCSD)=  0.34229318D-03
 CCSD(T)= -0.76340151530D+02
 Discarding MO integrals.
 Leave Link  913 at Wed Feb  8 13:58:00 2023, MaxMem=   754974720 cpu:             128.9 elap:              64.4
 (Enter /opt/cluster/programs/g16-c.01/g16/l601.exe)
 Copying SCF densities to generalized density rwf, IOpCl= 0 IROHF=0.

 **********************************************************************

            Population analysis using the SCF Density.

 **********************************************************************

 Orbital symmetries:
       Occupied  (A') (A') (A') (A') (A")
       Virtual   (A') (A') (A') (A") (A') (A') (A') (A') (A") (A")
                 (A') (A') (A') (A') (A') (A') (A') (A") (A") (A')
                 (A") (A') (A') (A") (A") (A') (A') (A') (A') (A")
                 (A') (A") (A') (A') (A") (A') (A") (A') (A') (A')
                 (A') (A") (A") (A') (A') (A") (A') (A') (A') (A")
                 (A') (A') (A") (A') (A') (A") (A") (A') (A') (A")
                 (A") (A") (A') (A') (A') (A') (A') (A") (A') (A')
                 (A") (A') (A') (A') (A") (A') (A") (A") (A') (A")
                 (A') (A") (A') (A') (A') (A') (A')
 The electronic state is 1-A'.
 Alpha  occ. eigenvalues --  -20.57081  -1.33947  -0.70715  -0.57587  -0.50767
 Alpha virt. eigenvalues --    0.02918   0.04746   0.13603   0.15949   0.17344
 Alpha virt. eigenvalues --    0.18263   0.22568   0.24364   0.26435   0.30142
 Alpha virt. eigenvalues --    0.31079   0.36469   0.43096   0.46293   0.59937
 Alpha virt. eigenvalues --    0.65404   0.70909   0.72154   0.73255   0.82043
 Alpha virt. eigenvalues --    0.84212   0.89523   0.90714   0.91817   0.92435
 Alpha virt. eigenvalues --    0.92763   0.96421   1.01032   1.04033   1.07967
 Alpha virt. eigenvalues --    1.10552   1.16798   1.16931   1.27071   1.50220
 Alpha virt. eigenvalues --    1.55631   1.57705   1.77828   1.81340   1.95238
 Alpha virt. eigenvalues --    2.09996   2.25743   2.31162   2.32566   2.40809
 Alpha virt. eigenvalues --    2.41165   2.43535   2.49236   2.70393   2.70543
 Alpha virt. eigenvalues --    2.73920   2.83617   2.86814   3.59472   3.72979
 Alpha virt. eigenvalues --    3.98994   4.06105   4.15854   4.21373   4.29854
 Alpha virt. eigenvalues --    4.36751   4.38141   4.40459   4.48245   4.66953
 Alpha virt. eigenvalues --    4.76170   5.05383   5.08193   5.23375   5.26060
 Alpha virt. eigenvalues --    5.45244   5.65237   6.12021   6.53564   6.70163
 Alpha virt. eigenvalues --    6.83212   7.09250   7.21616   7.28086   7.28233
 Alpha virt. eigenvalues --    7.31229   7.35810   7.48272   7.82878   7.89974
 Alpha virt. eigenvalues --    8.65015  15.09250
          Condensed to atoms (all electrons):
               1          2          3
     1  O    7.947716   0.264336   0.263690
     2  H    0.264336   0.453591   0.025624
     3  H    0.263690   0.025624   0.491393
 Mulliken charges:
               1
     1  O   -0.475741
     2  H    0.256448
     3  H    0.219293
 Sum of Mulliken charges =  -0.00000
 Mulliken charges with hydrogens summed into heavy atoms:
               1
     1  O   -0.000000
 Electronic spatial extent (au):  <R**2>=             19.8308
 Charge=             -0.0000 electrons
 Dipole moment (field-independent basis, Debye):
    X=             -0.0207    Y=             -1.9721    Z=              0.0000  Tot=              1.9722
 Quadrupole moment (field-independent basis, Debye-Ang):
   XX=             -4.0986   YY=             -6.3124   ZZ=             -7.6222
   XY=             -0.1468   XZ=              0.0000   YZ=              0.0000
 Traceless Quadrupole moment (field-independent basis, Debye-Ang):
   XX=              1.9125   YY=             -0.3013   ZZ=             -1.6112
   XY=             -0.1468   XZ=              0.0000   YZ=              0.0000
 Octapole moment (field-independent basis, Debye-Ang**2):
  XXX=             -0.0699  YYY=             -1.0873  ZZZ=              0.0000  XYY=              0.1082
  XXY=             -1.4917  XXZ=              0.0000  XZZ=             -0.0261  YZZ=             -0.2329
  YYZ=              0.0000  XYZ=             -0.0000
 Hexadecapole moment (field-independent basis, Debye-Ang**3):
 XXXX=             -6.0593 YYYY=             -7.4478 ZZZZ=             -6.8267 XXXY=             -0.0025
 XXXZ=             -0.0000 YYYX=             -0.0059 YYYZ=              0.0000 ZZZX=             -0.0000
 ZZZY=              0.0000 XXYY=             -1.8917 XXZZ=             -2.5294 YYZZ=             -2.4312
 XXYZ=              0.0000 YYXZ=              0.0000 ZZXY=              0.0380
 N-N= 8.945701730703D+00 E-N=-1.984602961247D+02  KE= 7.585798853161D+01
 Symmetry A'   KE= 7.138913228095D+01
 Symmetry A"   KE= 4.468856250658D+00
 Leave Link  601 at Wed Feb  8 13:58:01 2023, MaxMem=   754974720 cpu:               0.7 elap:               0.4
 (Enter /opt/cluster/programs/g16-c.01/g16/l9999.exe)
 Unable to Open any file for archive entry.
 1\1\GINC-NODE58\SP\RCCSD(T)-FC\Aug-CC-pVTZ\H2O1\BOITTIER\08-Feb-2023\0
 \\#P CCSD(T)/aug-cc-pVTZ scf(maxcycle=200)\\Gaussian input\\0,1\O,0,0.
 ,0.11751,0.\H,0,0.7973622306,-0.5007896629,0.\H,0,-0.7782126143,-0.442
 9060302,0.\\Version=ES64L-G16RevC.01\State=1-A'\HF=-76.0564176\MP2=-76
 .3267689\MP3=-76.3289765\MP4D=-76.3339179\MP4DQ=-76.3297592\MP4SDQ=-76
 .3317693\CCSD=-76.3312648\CCSD(T)=-76.3401515\RMSD=4.730e-09\PG=CS [SG
 (H2O1)]\\@
 The archive entry for this job was punched.


 THE WORLD IS NOT A HAMBURGER - YOU CAN'T HAVE IT YOUR WAY.
 Job cpu time:       0 days  0 hours  2 minutes 35.4 seconds.
 Elapsed time:       0 days  0 hours  1 minutes 17.0 seconds.
 File lengths (MBytes):  RWF=     75 Int=      0 D2E=      0 Chk=      2 Scr=      1
 Normal termination of Gaussian 16 at Wed Feb  8 13:58:01 2023.
