 Entering Gaussian System, Link 0=/opt/cluster/programs/g16-c.01/g16/g16
 Input=/scratch/boittier/jobs/tmp.7311985/gaussian_157_water_hf_adz2.com
 Output=/scratch/boittier/jobs/tmp.7311985/gaussian_157_water_hf_adz2.out
 Initial command:
 /opt/cluster/programs/g16-c.01/g16/l1.exe "/scratch/boittier/jobs/tmp.7311985/Gau-160204.inp" -scrdir="/scratch/boittier/jobs/tmp.7311985/"
 Entering Link 1 = /opt/cluster/programs/g16-c.01/g16/l1.exe PID=    160205.
  
 Copyright (c) 1988-2019, Gaussian, Inc.  All Rights Reserved.
  
 This is part of the Gaussian(R) 16 program.  It is based on
 the Gaussian(R) 09 system (copyright 2009, Gaussian, Inc.),
 the Gaussian(R) 03 system (copyright 2003, Gaussian, Inc.),
 the Gaussian(R) 98 system (copyright 1998, Gaussian, Inc.),
 the Gaussian(R) 94 system (copyright 1995, Gaussian, Inc.),
 the Gaussian 92(TM) system (copyright 1992, Gaussian, Inc.),
 the Gaussian 90(TM) system (copyright 1990, Gaussian, Inc.),
 the Gaussian 88(TM) system (copyright 1988, Gaussian, Inc.),
 the Gaussian 86(TM) system (copyright 1986, Carnegie Mellon
 University), and the Gaussian 82(TM) system (copyright 1983,
 Carnegie Mellon University). Gaussian is a federally registered
 trademark of Gaussian, Inc.
  
 This software contains proprietary and confidential information,
 including trade secrets, belonging to Gaussian, Inc.
  
 This software is provided under written license and may be
 used, copied, transmitted, or stored only in accord with that
 written license.
  
 The following legend is applicable only to US Government
 contracts under FAR:
  
                    RESTRICTED RIGHTS LEGEND
  
 Use, reproduction and disclosure by the US Government is
 subject to restrictions as set forth in subparagraphs (a)
 and (c) of the Commercial Computer Software - Restricted
 Rights clause in FAR 52.227-19.
  
 Gaussian, Inc.
 340 Quinnipiac St., Bldg. 40, Wallingford CT 06492
  
  
 ---------------------------------------------------------------
 Warning -- This program may not be used in any manner that
 competes with the business of Gaussian, Inc. or will provide
 assistance to any competitor of Gaussian, Inc.  The licensee
 of this program is prohibited from giving any competitor of
 Gaussian, Inc. access to this program.  By using this program,
 the user acknowledges that Gaussian, Inc. is engaged in the
 business of creating and licensing software in the field of
 computational chemistry and represents and warrants to the
 licensee that it is not a competitor of Gaussian, Inc. and that
 it will not use this program in any manner prohibited above.
 ---------------------------------------------------------------
  

 Cite this work as:
 Gaussian 16, Revision C.01,
 M. J. Frisch, G. W. Trucks, H. B. Schlegel, G. E. Scuseria, 
 M. A. Robb, J. R. Cheeseman, G. Scalmani, V. Barone, 
 G. A. Petersson, H. Nakatsuji, X. Li, M. Caricato, A. V. Marenich, 
 J. Bloino, B. G. Janesko, R. Gomperts, B. Mennucci, H. P. Hratchian, 
 J. V. Ortiz, A. F. Izmaylov, J. L. Sonnenberg, D. Williams-Young, 
 F. Ding, F. Lipparini, F. Egidi, J. Goings, B. Peng, A. Petrone, 
 T. Henderson, D. Ranasinghe, V. G. Zakrzewski, J. Gao, N. Rega, 
 G. Zheng, W. Liang, M. Hada, M. Ehara, K. Toyota, R. Fukuda, 
 J. Hasegawa, M. Ishida, T. Nakajima, Y. Honda, O. Kitao, H. Nakai, 
 T. Vreven, K. Throssell, J. A. Montgomery, Jr., J. E. Peralta, 
 F. Ogliaro, M. J. Bearpark, J. J. Heyd, E. N. Brothers, K. N. Kudin, 
 V. N. Staroverov, T. A. Keith, R. Kobayashi, J. Normand, 
 K. Raghavachari, A. P. Rendell, J. C. Burant, S. S. Iyengar, 
 J. Tomasi, M. Cossi, J. M. Millam, M. Klene, C. Adamo, R. Cammi, 
 J. W. Ochterski, R. L. Martin, K. Morokuma, O. Farkas, 
 J. B. Foresman, and D. J. Fox, Gaussian, Inc., Wallingford CT, 2019.
 
 ******************************************
 Gaussian 16:  ES64L-G16RevC.01  3-Jul-2019
                20-Feb-2023 
 ******************************************
 %nproc=4
 Will use up to    4 processors via shared memory.
 %mem=5760MB
 %chk=gaussian_157_water_hf_adz2.chk
 -----------------------------------
 #P HF/aug-cc-pVDZ scf(maxcycle=200)
 -----------------------------------
 1/38=1,172=1/1;
 2/12=2,17=6,18=5,40=1/2;
 3/5=16,7=10,11=9,25=1,30=1/1,2,3;
 4//1;
 5/5=2,7=200,38=5/2;
 6/7=2,8=2,9=2,10=2,28=1/1;
 99/5=1,9=1/99;
 Leave Link    1 at Mon Feb 20 10:17:07 2023, MaxMem=   754974720 cpu:               0.1 elap:               0.0
 (Enter /opt/cluster/programs/g16-c.01/g16/l101.exe)
 --------------
 Gaussian input
 --------------
 Symbolic Z-matrix:
 Charge =  0 Multiplicity = 1
 O                     0.        0.11751   0. 
 H                     0.79736  -0.50079   0. 
 H                    -0.87772  -0.26886   0. 
 
 ITRead=  0  0  0
 MicOpt= -1 -1 -1
 NAtoms=      3 NQM=        3 NQMF=       0 NMMI=      0 NMMIF=      0
                NMic=       0 NMicF=      0.
                    Isotopes and Nuclear Properties:
 (Nuclear quadrupole moments (NQMom) in fm**2, nuclear magnetic moments (NMagM)
  in nuclear magnetons)

  Atom         1           2           3
 IAtWgt=          16           1           1
 AtmWgt=  15.9949146   1.0078250   1.0078250
 NucSpn=           0           1           1
 AtZEff=  -0.0000000  -0.0000000  -0.0000000
 NQMom=    0.0000000   0.0000000   0.0000000
 NMagM=    0.0000000   2.7928460   2.7928460
 AtZNuc=   8.0000000   1.0000000   1.0000000
 Leave Link  101 at Mon Feb 20 10:17:07 2023, MaxMem=   754974720 cpu:               0.6 elap:               0.2
 (Enter /opt/cluster/programs/g16-c.01/g16/l202.exe)
                          Input orientation:                          
 ---------------------------------------------------------------------
 Center     Atomic      Atomic             Coordinates (Angstroms)
 Number     Number       Type             X           Y           Z
 ---------------------------------------------------------------------
      1          8           0        0.000000    0.117510    0.000000
      2          1           0        0.797362   -0.500790    0.000000
      3          1           0       -0.877724   -0.268860    0.000000
 ---------------------------------------------------------------------
                    Distance matrix (angstroms):
                    1          2          3
     1  O    0.000000
     2  H    1.009000   0.000000
     3  H    0.959000   1.691066   0.000000
 Stoichiometry    H2O
 Framework group  CS[SG(H2O)]
 Deg. of freedom     3
 Full point group                 CS      NOp   2
 Largest Abelian subgroup         CS      NOp   2
 Largest concise Abelian subgroup C1      NOp   1
                         Standard orientation:                         
 ---------------------------------------------------------------------
 Center     Atomic      Atomic             Coordinates (Angstroms)
 Number     Number       Type             X           Y           Z
 ---------------------------------------------------------------------
      1          8           0        0.000000    0.100788   -0.000000
      2          1           0        0.844123   -0.451967   -0.000000
      3          1           0       -0.844123   -0.354336    0.000000
 ---------------------------------------------------------------------
 Rotational constants (GHZ):        1117.1360558         350.1674433         266.6010657
 Leave Link  202 at Mon Feb 20 10:17:07 2023, MaxMem=   754974720 cpu:               0.1 elap:               0.0
 (Enter /opt/cluster/programs/g16-c.01/g16/l301.exe)
 Standard basis: Aug-CC-pVDZ (5D, 7F)
 Ernie: Thresh=  0.10000D-02 Tol=  0.10000D-05 Strict=F.
 Ernie:  2 primitive shells out of 39 were deleted.
 There are    32 symmetry adapted cartesian basis functions of A'  symmetry.
 There are    11 symmetry adapted cartesian basis functions of A"  symmetry.
 There are    30 symmetry adapted basis functions of A'  symmetry.
 There are    11 symmetry adapted basis functions of A"  symmetry.
    41 basis functions,    65 primitive gaussians,    43 cartesian basis functions
     5 alpha electrons        5 beta electrons
       nuclear repulsion energy         8.9229904101 Hartrees.
 IExCor=    0 DFT=F Ex=HF Corr=None ExCW=0 ScaHFX=  1.000000
 ScaDFX=  1.000000  1.000000  1.000000  1.000000 ScalE2=  1.000000  1.000000
 IRadAn=      5 IRanWt=     -1 IRanGd=            0 ICorTp=0 IEmpDi=  4
 NAtoms=    3 NActive=    3 NUniq=    3 SFac= 1.00D+00 NAtFMM=   60 NAOKFM=F Big=F
 Integral buffers will be    131072 words long.
 Raffenetti 1 integral format.
 Two-electron integral symmetry is turned on.
 Leave Link  301 at Mon Feb 20 10:17:07 2023, MaxMem=   754974720 cpu:               0.1 elap:               0.0
 (Enter /opt/cluster/programs/g16-c.01/g16/l302.exe)
 NPDir=0 NMtPBC=     1 NCelOv=     1 NCel=       1 NClECP=     1 NCelD=      1
         NCelK=      1 NCelE2=     1 NClLst=     1 CellRange=     0.0.
 One-electron integrals computed using PRISM.
 One-electron integral symmetry used in STVInt
 NBasis=    41 RedAO= T EigKep=  3.04D-03  NBF=    30    11
 NBsUse=    41 1.00D-06 EigRej= -1.00D+00 NBFU=    30    11
 Leave Link  302 at Mon Feb 20 10:17:07 2023, MaxMem=   754974720 cpu:               0.8 elap:               0.3
 (Enter /opt/cluster/programs/g16-c.01/g16/l303.exe)
 DipDrv:  MaxL=1.
 Leave Link  303 at Mon Feb 20 10:17:08 2023, MaxMem=   754974720 cpu:               0.5 elap:               0.3
 (Enter /opt/cluster/programs/g16-c.01/g16/l401.exe)
 ExpMin= 2.97D-02 ExpMax= 1.17D+04 ExpMxC= 4.01D+02 IAcc=3 IRadAn=         5 AccDes= 0.00D+00
 Harris functional with IExCor=  205 and IRadAn=       5 diagonalized for initial guess.
 HarFok:  IExCor=  205 AccDes= 0.00D+00 IRadAn=         5 IDoV= 1 UseB2=F ITyADJ=14
 ICtDFT=  3500011 ScaDFX=  1.000000  1.000000  1.000000  1.000000
 FoFCou: FMM=F IPFlag=           0 FMFlag=      100000 FMFlg1=           0
         NFxFlg=           0 DoJE=T BraDBF=F KetDBF=T FulRan=T
         wScrn=  0.000000 ICntrl=       500 IOpCl=  0 I1Cent=   200000004 NGrid=           0
         NMat0=    1 NMatS0=      1 NMatT0=    0 NMatD0=    1 NMtDS0=    0 NMtDT0=    0
 Petite list used in FoFCou.
 Harris En= -76.1200871274525    
 JPrj=0 DoOrth=F DoCkMO=F.
 Initial guess orbital symmetries:
       Occupied  (A') (A') (A') (A') (A")
       Virtual   (A') (A') (A') (A") (A') (A') (A') (A') (A") (A')
                 (A") (A') (A') (A') (A') (A') (A") (A') (A") (A')
                 (A") (A') (A') (A') (A") (A") (A') (A') (A') (A')
                 (A') (A") (A') (A") (A') (A')
 The electronic state of the initial guess is 1-A'.
 Leave Link  401 at Mon Feb 20 10:17:08 2023, MaxMem=   754974720 cpu:               0.9 elap:               0.3
 (Enter /opt/cluster/programs/g16-c.01/g16/l502.exe)
 Keep R1 ints in memory in symmetry-blocked form, NReq=1210668.
 FoFCou: FMM=F IPFlag=           0 FMFlag=           0 FMFlg1=           0
         NFxFlg=           0 DoJE=F BraDBF=F KetDBF=F FulRan=T
         wScrn=  0.000000 ICntrl=       600 IOpCl=  0 I1Cent=           0 NGrid=           0
         NMat0=    1 NMatS0=    861 NMatT0=    0 NMatD0=    1 NMtDS0=    0 NMtDT0=    0
 Petite list used in FoFCou.
 Closed shell SCF:
 Using DIIS extrapolation, IDIIS=  1040.
 NGot=   754974720 LenX=   754771907 LenY=   754769617
 Requested convergence on RMS density matrix=1.00D-08 within 200 cycles.
 Requested convergence on MAX density matrix=1.00D-06.
 Requested convergence on             energy=1.00D-06.
 No special actions if energy rises.

 Cycle   1  Pass 1  IDiag  1:
 E= -75.9570755848094    
 DIIS: error= 5.07D-02 at cycle   1 NSaved=   1.
 NSaved= 1 IEnMin= 1 EnMin= -75.9570755848094     IErMin= 1 ErrMin= 5.07D-02
 ErrMax= 5.07D-02  0.00D+00 EMaxC= 1.00D-01 BMatC= 1.15D-01 BMatP= 1.15D-01
 IDIUse=3 WtCom= 4.93D-01 WtEn= 5.07D-01
 Coeff-Com:  0.100D+01
 Coeff-En:   0.100D+01
 Coeff:      0.100D+01
 Gap=     0.457 Goal=   None    Shift=    0.000
 GapD=    0.457 DampG=2.000 DampE=0.500 DampFc=1.0000 IDamp=-1.
 RMSDP=6.21D-03 MaxDP=1.17D-01              OVMax= 1.20D-01

 Cycle   2  Pass 1  IDiag  1:
 E= -76.0000507670416     Delta-E=       -0.042975182232 Rises=F Damp=F
 DIIS: error= 4.05D-02 at cycle   2 NSaved=   2.
 NSaved= 2 IEnMin= 2 EnMin= -76.0000507670416     IErMin= 2 ErrMin= 4.05D-02
 ErrMax= 4.05D-02  0.00D+00 EMaxC= 1.00D-01 BMatC= 4.61D-02 BMatP= 1.15D-01
 IDIUse=3 WtCom= 5.95D-01 WtEn= 4.05D-01
 Coeff-Com:  0.377D+00 0.623D+00
 Coeff-En:   0.224D+00 0.776D+00
 Coeff:      0.315D+00 0.685D+00
 Gap=     0.555 Goal=   None    Shift=    0.000
 RMSDP=2.93D-03 MaxDP=5.47D-02 DE=-4.30D-02 OVMax= 5.95D-02

 Cycle   3  Pass 1  IDiag  1:
 E= -76.0319885360828     Delta-E=       -0.031937769041 Rises=F Damp=F
 DIIS: error= 4.66D-03 at cycle   3 NSaved=   3.
 NSaved= 3 IEnMin= 3 EnMin= -76.0319885360828     IErMin= 3 ErrMin= 4.66D-03
 ErrMax= 4.66D-03  0.00D+00 EMaxC= 1.00D-01 BMatC= 1.14D-03 BMatP= 4.61D-02
 IDIUse=3 WtCom= 9.53D-01 WtEn= 4.66D-02
 Coeff-Com: -0.374D-01 0.919D-01 0.946D+00
 Coeff-En:   0.000D+00 0.000D+00 0.100D+01
 Coeff:     -0.357D-01 0.876D-01 0.948D+00
 Gap=     0.537 Goal=   None    Shift=    0.000
 RMSDP=4.70D-04 MaxDP=8.15D-03 DE=-3.19D-02 OVMax= 9.20D-03

 Cycle   4  Pass 1  IDiag  1:
 E= -76.0328641863135     Delta-E=       -0.000875650231 Rises=F Damp=F
 DIIS: error= 6.49D-04 at cycle   4 NSaved=   4.
 NSaved= 4 IEnMin= 4 EnMin= -76.0328641863135     IErMin= 4 ErrMin= 6.49D-04
 ErrMax= 6.49D-04  0.00D+00 EMaxC= 1.00D-01 BMatC= 8.30D-06 BMatP= 1.14D-03
 IDIUse=3 WtCom= 9.94D-01 WtEn= 6.49D-03
 Coeff-Com:  0.830D-02-0.427D-01-0.322D+00 0.136D+01
 Coeff-En:   0.000D+00 0.000D+00 0.000D+00 0.100D+01
 Coeff:      0.824D-02-0.424D-01-0.320D+00 0.135D+01
 Gap=     0.538 Goal=   None    Shift=    0.000
 RMSDP=1.23D-04 MaxDP=1.19D-03 DE=-8.76D-04 OVMax= 2.56D-03

 Cycle   5  Pass 1  IDiag  1:
 E= -76.0328854912758     Delta-E=       -0.000021304962 Rises=F Damp=F
 DIIS: error= 1.84D-04 at cycle   5 NSaved=   5.
 NSaved= 5 IEnMin= 5 EnMin= -76.0328854912758     IErMin= 5 ErrMin= 1.84D-04
 ErrMax= 1.84D-04  0.00D+00 EMaxC= 1.00D-01 BMatC= 4.11D-07 BMatP= 8.30D-06
 IDIUse=3 WtCom= 9.98D-01 WtEn= 1.84D-03
 Coeff-Com:  0.351D-03 0.219D-02 0.122D-01-0.263D+00 0.125D+01
 Coeff-En:   0.000D+00 0.000D+00 0.000D+00 0.000D+00 0.100D+01
 Coeff:      0.350D-03 0.219D-02 0.122D-01-0.262D+00 0.125D+01
 Gap=     0.538 Goal=   None    Shift=    0.000
 RMSDP=3.24D-05 MaxDP=4.13D-04 DE=-2.13D-05 OVMax= 7.50D-04

 Cycle   6  Pass 1  IDiag  1:
 E= -76.0328868308715     Delta-E=       -0.000001339596 Rises=F Damp=F
 DIIS: error= 3.79D-05 at cycle   6 NSaved=   6.
 NSaved= 6 IEnMin= 6 EnMin= -76.0328868308715     IErMin= 6 ErrMin= 3.79D-05
 ErrMax= 3.79D-05  0.00D+00 EMaxC= 1.00D-01 BMatC= 1.79D-08 BMatP= 4.11D-07
 IDIUse=1 WtCom= 1.00D+00 WtEn= 0.00D+00
 Coeff-Com: -0.435D-03 0.157D-02 0.131D-01-0.198D-01-0.250D+00 0.126D+01
 Coeff:     -0.435D-03 0.157D-02 0.131D-01-0.198D-01-0.250D+00 0.126D+01
 Gap=     0.539 Goal=   None    Shift=    0.000
 RMSDP=6.25D-06 MaxDP=1.06D-04 DE=-1.34D-06 OVMax= 1.78D-04

 Cycle   7  Pass 1  IDiag  1:
 E= -76.0328868915204     Delta-E=       -0.000000060649 Rises=F Damp=F
 DIIS: error= 8.23D-06 at cycle   7 NSaved=   7.
 NSaved= 7 IEnMin= 7 EnMin= -76.0328868915204     IErMin= 7 ErrMin= 8.23D-06
 ErrMax= 8.23D-06  0.00D+00 EMaxC= 1.00D-01 BMatC= 9.14D-10 BMatP= 1.79D-08
 IDIUse=1 WtCom= 1.00D+00 WtEn= 0.00D+00
 Coeff-Com:  0.164D-03-0.766D-03-0.631D-02 0.232D-01 0.393D-01-0.493D+00
 Coeff-Com:  0.144D+01
 Coeff:      0.164D-03-0.766D-03-0.631D-02 0.232D-01 0.393D-01-0.493D+00
 Coeff:      0.144D+01
 Gap=     0.539 Goal=   None    Shift=    0.000
 RMSDP=1.26D-06 MaxDP=2.62D-05 DE=-6.06D-08 OVMax= 3.86D-05

 Cycle   8  Pass 1  IDiag  1:
 E= -76.0328868941970     Delta-E=       -0.000000002677 Rises=F Damp=F
 DIIS: error= 1.17D-06 at cycle   8 NSaved=   8.
 NSaved= 8 IEnMin= 8 EnMin= -76.0328868941970     IErMin= 8 ErrMin= 1.17D-06
 ErrMax= 1.17D-06  0.00D+00 EMaxC= 1.00D-01 BMatC= 2.48D-11 BMatP= 9.14D-10
 IDIUse=1 WtCom= 1.00D+00 WtEn= 0.00D+00
 Coeff-Com: -0.217D-04 0.117D-03 0.104D-02-0.523D-02 0.106D-02 0.745D-01
 Coeff-Com: -0.360D+00 0.129D+01
 Coeff:     -0.217D-04 0.117D-03 0.104D-02-0.523D-02 0.106D-02 0.745D-01
 Coeff:     -0.360D+00 0.129D+01
 Gap=     0.539 Goal=   None    Shift=    0.000
 RMSDP=2.33D-07 MaxDP=3.27D-06 DE=-2.68D-09 OVMax= 4.66D-06

 Cycle   9  Pass 1  IDiag  1:
 E= -76.0328868942557     Delta-E=       -0.000000000059 Rises=F Damp=F
 DIIS: error= 1.35D-07 at cycle   9 NSaved=   9.
 NSaved= 9 IEnMin= 9 EnMin= -76.0328868942557     IErMin= 9 ErrMin= 1.35D-07
 ErrMax= 1.35D-07  0.00D+00 EMaxC= 1.00D-01 BMatC= 4.35D-13 BMatP= 2.48D-11
 IDIUse=1 WtCom= 1.00D+00 WtEn= 0.00D+00
 Coeff-Com: -0.466D-05 0.217D-04 0.173D-03-0.578D-03-0.120D-02 0.124D-01
 Coeff-Com: -0.292D-01-0.531D-01 0.107D+01
 Coeff:     -0.466D-05 0.217D-04 0.173D-03-0.578D-03-0.120D-02 0.124D-01
 Coeff:     -0.292D-01-0.531D-01 0.107D+01
 Gap=     0.539 Goal=   None    Shift=    0.000
 RMSDP=3.04D-08 MaxDP=3.09D-07 DE=-5.87D-11 OVMax= 4.80D-07

 Cycle  10  Pass 1  IDiag  1:
 E= -76.0328868942567     Delta-E=       -0.000000000001 Rises=F Damp=F
 DIIS: error= 3.68D-08 at cycle  10 NSaved=  10.
 NSaved=10 IEnMin=10 EnMin= -76.0328868942567     IErMin=10 ErrMin= 3.68D-08
 ErrMax= 3.68D-08  0.00D+00 EMaxC= 1.00D-01 BMatC= 2.77D-14 BMatP= 4.35D-13
 IDIUse=1 WtCom= 1.00D+00 WtEn= 0.00D+00
 Coeff-Com:  0.171D-05-0.849D-05-0.712D-04 0.294D-03 0.305D-03-0.549D-02
 Coeff-Com:  0.198D-01-0.354D-01-0.287D+00 0.131D+01
 Coeff:      0.171D-05-0.849D-05-0.712D-04 0.294D-03 0.305D-03-0.549D-02
 Coeff:      0.198D-01-0.354D-01-0.287D+00 0.131D+01
 Gap=     0.539 Goal=   None    Shift=    0.000
 RMSDP=8.45D-09 MaxDP=8.49D-08 DE=-9.52D-13 OVMax= 1.41D-07

 SCF Done:  E(RHF) =  -76.0328868943     A.U. after   10 cycles
            NFock= 10  Conv=0.84D-08     -V/T= 2.0029
 KE= 7.580996711032D+01 PE=-1.983339412936D+02 EE= 3.756809687896D+01
 Leave Link  502 at Mon Feb 20 10:17:08 2023, MaxMem=   754974720 cpu:               0.6 elap:               0.2
 (Enter /opt/cluster/programs/g16-c.01/g16/l601.exe)
 Copying SCF densities to generalized density rwf, IOpCl= 0 IROHF=0.

 **********************************************************************

            Population analysis using the SCF Density.

 **********************************************************************

 Orbital symmetries:
       Occupied  (A') (A') (A') (A') (A")
       Virtual   (A') (A') (A') (A") (A') (A') (A') (A') (A") (A')
                 (A") (A') (A') (A') (A') (A') (A") (A') (A") (A')
                 (A') (A") (A') (A') (A") (A") (A') (A') (A') (A')
                 (A') (A") (A') (A") (A') (A')
 The electronic state is 1-A'.
 Alpha  occ. eigenvalues --  -20.57422  -1.33474  -0.72833  -0.55382  -0.50278
 Alpha virt. eigenvalues --    0.03581   0.05654   0.17621   0.19659   0.21554
 Alpha virt. eigenvalues --    0.22750   0.29265   0.30996   0.37595   0.42903
 Alpha virt. eigenvalues --    0.45201   0.52018   0.63904   0.65589   0.83823
 Alpha virt. eigenvalues --    0.87401   1.08549   1.09123   1.14715   1.39286
 Alpha virt. eigenvalues --    1.46550   1.49023   1.57037   1.96361   2.03014
 Alpha virt. eigenvalues --    2.06479   2.39489   2.42881   2.58165   2.73990
 Alpha virt. eigenvalues --    2.85939   3.65825   3.66674   3.70342   4.10369
 Alpha virt. eigenvalues --    4.21535
          Condensed to atoms (all electrons):
               1          2          3
     1  O    7.732304   0.324109   0.340825
     2  H    0.324109   0.487061  -0.039291
     3  H    0.340825  -0.039291   0.529348
 Mulliken charges:
               1
     1  O   -0.397238
     2  H    0.228121
     3  H    0.169117
 Sum of Mulliken charges =   0.00000
 Mulliken charges with hydrogens summed into heavy atoms:
               1
     1  O    0.000000
 Electronic spatial extent (au):  <R**2>=             19.9208
 Charge=              0.0000 electrons
 Dipole moment (field-independent basis, Debye):
    X=             -0.0128    Y=             -1.7712    Z=             -0.0000  Tot=              1.7713
 Quadrupole moment (field-independent basis, Debye-Ang):
   XX=             -3.5892   YY=             -6.7010   ZZ=             -7.6844
   XY=             -0.2032   XZ=             -0.0000   YZ=              0.0000
 Traceless Quadrupole moment (field-independent basis, Debye-Ang):
   XX=              2.4023   YY=             -0.7095   ZZ=             -1.6929
   XY=             -0.2032   XZ=             -0.0000   YZ=              0.0000
 Octapole moment (field-independent basis, Debye-Ang**2):
  XXX=             -0.0493  YYY=             -0.9267  ZZZ=              0.0000  XYY=              0.1159
  XXY=             -1.4564  XXZ=              0.0000  XZZ=             -0.0302  YZZ=             -0.2422
  YYZ=             -0.0000  XYZ=              0.0000
 Hexadecapole moment (field-independent basis, Debye-Ang**3):
 XXXX=             -5.6125 YYYY=             -7.5188 ZZZZ=             -7.0255 XXXY=             -0.0664
 XXXZ=             -0.0000 YYYX=              0.0108 YYYZ=              0.0000 ZZZX=              0.0000
 ZZZY=              0.0000 XXYY=             -2.0882 XXZZ=             -2.6147 YYZZ=             -2.4554
 XXYZ=              0.0000 YYXZ=              0.0000 ZZXY=              0.0390
 N-N= 8.922990410069D+00 E-N=-1.983339409451D+02  KE= 7.580996711032D+01
 Symmetry A'   KE= 7.138059314879D+01
 Symmetry A"   KE= 4.429373961521D+00
 No NMR shielding tensors so no spin-rotation constants.
 Leave Link  601 at Mon Feb 20 10:17:09 2023, MaxMem=   754974720 cpu:               0.9 elap:               0.5
 (Enter /opt/cluster/programs/g16-c.01/g16/l9999.exe)
 Unable to Open any file for archive entry.
 1\1\GINC-NODE106\SP\RHF\Aug-CC-pVDZ\H2O1\BOITTIER\20-Feb-2023\0\\#P HF
 /aug-cc-pVDZ scf(maxcycle=200)\\Gaussian input\\0,1\O,0,0.,0.11751,0.\
 H,0,0.7973622306,-0.5007896629,0.\H,0,-0.877723846,-0.2688600949,0.\\V
 ersion=ES64L-G16RevC.01\State=1-A'\HF=-76.0328869\RMSD=8.448e-09\Dipol
 e=-0.0605697,-0.6942435,0.\Quadrupole=1.7473494,-0.4887444,-1.258605,-
 0.3330099,0.,0.\PG=CS [SG(H2O1)]\\@
 The archive entry for this job was punched.


 THE MOST INCOMPREHENSIBLE THING ABOUT THE WORLD
 IS THAT IT IS COMPREHENSIBLE. -- A. EINSTEIN
 Job cpu time:       0 days  0 hours  0 minutes  4.8 seconds.
 Elapsed time:       0 days  0 hours  0 minutes  1.9 seconds.
 File lengths (MBytes):  RWF=      6 Int=      0 D2E=      0 Chk=      1 Scr=      1
 Normal termination of Gaussian 16 at Mon Feb 20 10:17:09 2023.
