 Entering Gaussian System, Link 0=/opt/cluster/programs/g16-c.01/g16/g16
 Input=/scratch/boittier/jobs/tmp.7425276/gaussian_15_water_pbe0_dz.com
 Output=/scratch/boittier/jobs/tmp.7425276/gaussian_15_water_pbe0_dz.out
 Initial command:
 /opt/cluster/programs/g16-c.01/g16/l1.exe "/scratch/boittier/jobs/tmp.7425276/Gau-12320.inp" -scrdir="/scratch/boittier/jobs/tmp.7425276/"
 Entering Link 1 = /opt/cluster/programs/g16-c.01/g16/l1.exe PID=     12322.
  
 Copyright (c) 1988-2019, Gaussian, Inc.  All Rights Reserved.
  
 This is part of the Gaussian(R) 16 program.  It is based on
 the Gaussian(R) 09 system (copyright 2009, Gaussian, Inc.),
 the Gaussian(R) 03 system (copyright 2003, Gaussian, Inc.),
 the Gaussian(R) 98 system (copyright 1998, Gaussian, Inc.),
 the Gaussian(R) 94 system (copyright 1995, Gaussian, Inc.),
 the Gaussian 92(TM) system (copyright 1992, Gaussian, Inc.),
 the Gaussian 90(TM) system (copyright 1990, Gaussian, Inc.),
 the Gaussian 88(TM) system (copyright 1988, Gaussian, Inc.),
 the Gaussian 86(TM) system (copyright 1986, Carnegie Mellon
 University), and the Gaussian 82(TM) system (copyright 1983,
 Carnegie Mellon University). Gaussian is a federally registered
 trademark of Gaussian, Inc.
  
 This software contains proprietary and confidential information,
 including trade secrets, belonging to Gaussian, Inc.
  
 This software is provided under written license and may be
 used, copied, transmitted, or stored only in accord with that
 written license.
  
 The following legend is applicable only to US Government
 contracts under FAR:
  
                    RESTRICTED RIGHTS LEGEND
  
 Use, reproduction and disclosure by the US Government is
 subject to restrictions as set forth in subparagraphs (a)
 and (c) of the Commercial Computer Software - Restricted
 Rights clause in FAR 52.227-19.
  
 Gaussian, Inc.
 340 Quinnipiac St., Bldg. 40, Wallingford CT 06492
  
  
 ---------------------------------------------------------------
 Warning -- This program may not be used in any manner that
 competes with the business of Gaussian, Inc. or will provide
 assistance to any competitor of Gaussian, Inc.  The licensee
 of this program is prohibited from giving any competitor of
 Gaussian, Inc. access to this program.  By using this program,
 the user acknowledges that Gaussian, Inc. is engaged in the
 business of creating and licensing software in the field of
 computational chemistry and represents and warrants to the
 licensee that it is not a competitor of Gaussian, Inc. and that
 it will not use this program in any manner prohibited above.
 ---------------------------------------------------------------
  

 Cite this work as:
 Gaussian 16, Revision C.01,
 M. J. Frisch, G. W. Trucks, H. B. Schlegel, G. E. Scuseria, 
 M. A. Robb, J. R. Cheeseman, G. Scalmani, V. Barone, 
 G. A. Petersson, H. Nakatsuji, X. Li, M. Caricato, A. V. Marenich, 
 J. Bloino, B. G. Janesko, R. Gomperts, B. Mennucci, H. P. Hratchian, 
 J. V. Ortiz, A. F. Izmaylov, J. L. Sonnenberg, D. Williams-Young, 
 F. Ding, F. Lipparini, F. Egidi, J. Goings, B. Peng, A. Petrone, 
 T. Henderson, D. Ranasinghe, V. G. Zakrzewski, J. Gao, N. Rega, 
 G. Zheng, W. Liang, M. Hada, M. Ehara, K. Toyota, R. Fukuda, 
 J. Hasegawa, M. Ishida, T. Nakajima, Y. Honda, O. Kitao, H. Nakai, 
 T. Vreven, K. Throssell, J. A. Montgomery, Jr., J. E. Peralta, 
 F. Ogliaro, M. J. Bearpark, J. J. Heyd, E. N. Brothers, K. N. Kudin, 
 V. N. Staroverov, T. A. Keith, R. Kobayashi, J. Normand, 
 K. Raghavachari, A. P. Rendell, J. C. Burant, S. S. Iyengar, 
 J. Tomasi, M. Cossi, J. M. Millam, M. Klene, C. Adamo, R. Cammi, 
 J. W. Ochterski, R. L. Martin, K. Morokuma, O. Farkas, 
 J. B. Foresman, and D. J. Fox, Gaussian, Inc., Wallingford CT, 2019.
 
 ******************************************
 Gaussian 16:  ES64L-G16RevC.01  3-Jul-2019
                20-Mar-2023 
 ******************************************
 %nproc=4
 Will use up to    4 processors via shared memory.
 %mem=5760MB
 %chk=gaussian_15_water_pbe0_dz.chk
 ----------------------------------------
 #P PBE1PBE/aug-cc-pVDZ scf(maxcycle=200)
 ----------------------------------------
 1/38=1,172=1/1;
 2/12=2,17=6,18=5,40=1/2;
 3/5=16,7=10,11=2,25=1,30=1,74=-13/1,2,3;
 4//1;
 5/5=2,7=200,38=5/2;
 6/7=2,8=2,9=2,10=2,28=1/1;
 99/5=1,9=1/99;
 Leave Link    1 at Mon Mar 20 17:33:05 2023, MaxMem=   754974720 cpu:               0.1 elap:               0.0
 (Enter /opt/cluster/programs/g16-c.01/g16/l101.exe)
 --------------
 Gaussian input
 --------------
 Symbolic Z-matrix:
 Charge =  0 Multiplicity = 1
 O                     0.        0.11751   0. 
 H                     0.71834  -0.43951   0. 
 H                    -0.80439  -0.30586   0. 
 
 ITRead=  0  0  0
 MicOpt= -1 -1 -1
 NAtoms=      3 NQM=        3 NQMF=       0 NMMI=      0 NMMIF=      0
                NMic=       0 NMicF=      0.
                    Isotopes and Nuclear Properties:
 (Nuclear quadrupole moments (NQMom) in fm**2, nuclear magnetic moments (NMagM)
  in nuclear magnetons)

  Atom         1           2           3
 IAtWgt=          16           1           1
 AtmWgt=  15.9949146   1.0078250   1.0078250
 NucSpn=           0           1           1
 AtZEff=  -0.0000000  -0.0000000  -0.0000000
 NQMom=    0.0000000   0.0000000   0.0000000
 NMagM=    0.0000000   2.7928460   2.7928460
 AtZNuc=   8.0000000   1.0000000   1.0000000
 Leave Link  101 at Mon Mar 20 17:33:05 2023, MaxMem=   754974720 cpu:               0.6 elap:               0.2
 (Enter /opt/cluster/programs/g16-c.01/g16/l202.exe)
                          Input orientation:                          
 ---------------------------------------------------------------------
 Center     Atomic      Atomic             Coordinates (Angstroms)
 Number     Number       Type             X           Y           Z
 ---------------------------------------------------------------------
      1          8           0        0.000000    0.117510    0.000000
      2          1           0        0.718337   -0.439511    0.000000
      3          1           0       -0.804388   -0.305858    0.000000
 ---------------------------------------------------------------------
                    Distance matrix (angstroms):
                    1          2          3
     1  O    0.000000
     2  H    0.909000   0.000000
     3  H    0.909000   1.528580   0.000000
 Stoichiometry    H2O
 Framework group  C2V[C2(O),SGV(H2)]
 Deg. of freedom     2
 Full point group                 C2V     NOp   4
 Largest Abelian subgroup         C2V     NOp   4
 Largest concise Abelian subgroup C2      NOp   2
                         Standard orientation:                         
 ---------------------------------------------------------------------
 Center     Atomic      Atomic             Coordinates (Angstroms)
 Number     Number       Type             X           Y           Z
 ---------------------------------------------------------------------
      1          8           0        0.000000   -0.000000    0.098416
      2          1           0        0.000000    0.764290   -0.393663
      3          1           0       -0.000000   -0.764290   -0.393663
 ---------------------------------------------------------------------
 Rotational constants (GHZ):        1165.9427508         429.2258849         313.7303466
 Leave Link  202 at Mon Mar 20 17:33:05 2023, MaxMem=   754974720 cpu:               0.1 elap:               0.0
 (Enter /opt/cluster/programs/g16-c.01/g16/l301.exe)
 Standard basis: Aug-CC-pVDZ (5D, 7F)
 Ernie: Thresh=  0.10000D-02 Tol=  0.10000D-05 Strict=F.
 Ernie:  2 primitive shells out of 39 were deleted.
 There are    20 symmetry adapted cartesian basis functions of A1  symmetry.
 There are     4 symmetry adapted cartesian basis functions of A2  symmetry.
 There are     7 symmetry adapted cartesian basis functions of B1  symmetry.
 There are    12 symmetry adapted cartesian basis functions of B2  symmetry.
 There are    18 symmetry adapted basis functions of A1  symmetry.
 There are     4 symmetry adapted basis functions of A2  symmetry.
 There are     7 symmetry adapted basis functions of B1  symmetry.
 There are    12 symmetry adapted basis functions of B2  symmetry.
    41 basis functions,    65 primitive gaussians,    43 cartesian basis functions
     5 alpha electrons        5 beta electrons
       nuclear repulsion energy         9.6606391938 Hartrees.
 IExCor= 1009 DFT=T Ex+Corr=PBE1PBE ExCW=0 ScaHFX=  0.250000
 ScaDFX=  0.750000  0.750000  1.000000  1.000000 ScalE2=  1.000000  1.000000
 IRadAn=      5 IRanWt=     -1 IRanGd=            0 ICorTp=0 IEmpDi=  4
 NAtoms=    3 NActive=    3 NUniq=    2 SFac= 2.25D+00 NAtFMM=   60 NAOKFM=F Big=F
 Integral buffers will be    131072 words long.
 Raffenetti 2 integral format.
 Two-electron integral symmetry is turned on.
 Leave Link  301 at Mon Mar 20 17:33:05 2023, MaxMem=   754974720 cpu:               0.1 elap:               0.0
 (Enter /opt/cluster/programs/g16-c.01/g16/l302.exe)
 NPDir=0 NMtPBC=     1 NCelOv=     1 NCel=       1 NClECP=     1 NCelD=      1
         NCelK=      1 NCelE2=     1 NClLst=     1 CellRange=     0.0.
 One-electron integrals computed using PRISM.
 One-electron integral symmetry used in STVInt
 NBasis=    41 RedAO= T EigKep=  2.50D-03  NBF=    18     4     7    12
 NBsUse=    41 1.00D-06 EigRej= -1.00D+00 NBFU=    18     4     7    12
 Precomputing XC quadrature grid using
 IXCGrd= 4 IRadAn=           5 IRanWt=          -1 IRanGd=           0 AccXCQ= 0.00D+00.
 Generated NRdTot=       0 NPtTot=           0 NUsed=           0 NTot=          32
 NSgBfM=    43    43    43    43    43 MxSgAt=     3 MxSgA2=     3.
 Leave Link  302 at Mon Mar 20 17:33:05 2023, MaxMem=   754974720 cpu:               0.5 elap:               0.2
 (Enter /opt/cluster/programs/g16-c.01/g16/l303.exe)
 DipDrv:  MaxL=1.
 Leave Link  303 at Mon Mar 20 17:33:05 2023, MaxMem=   754974720 cpu:               0.2 elap:               0.1
 (Enter /opt/cluster/programs/g16-c.01/g16/l401.exe)
 ExpMin= 2.97D-02 ExpMax= 1.17D+04 ExpMxC= 4.01D+02 IAcc=3 IRadAn=         5 AccDes= 0.00D+00
 Harris functional with IExCor= 1009 and IRadAn=       5 diagonalized for initial guess.
 HarFok:  IExCor= 1009 AccDes= 0.00D+00 IRadAn=         5 IDoV= 1 UseB2=F ITyADJ=14
 ICtDFT=  3500011 ScaDFX=  1.000000  1.000000  1.000000  1.000000
 FoFCou: FMM=F IPFlag=           0 FMFlag=      100000 FMFlg1=           0
         NFxFlg=           0 DoJE=T BraDBF=F KetDBF=T FulRan=T
         wScrn=  0.000000 ICntrl=       500 IOpCl=  0 I1Cent=   200000004 NGrid=           0
         NMat0=    1 NMatS0=      1 NMatT0=    0 NMatD0=    1 NMtDS0=    0 NMtDT0=    0
 Petite list used in FoFCou.
 Harris En= -76.3967384956233    
 JPrj=0 DoOrth=F DoCkMO=F.
 Initial guess orbital symmetries:
       Occupied  (A1) (A1) (B2) (A1) (B1)
       Virtual   (A1) (B2) (A1) (B1) (A1) (B2) (B2) (A1) (A2) (A1)
                 (B1) (B2) (A1) (B2) (B2) (A1) (B1) (A1) (A2) (A1)
                 (B1) (B2) (A1) (B2) (A2) (B1) (B2) (A1) (A1) (B2)
                 (A1) (B1) (A1) (A2) (A1) (B2)
 The electronic state of the initial guess is 1-A1.
 Leave Link  401 at Mon Mar 20 17:33:06 2023, MaxMem=   754974720 cpu:               0.7 elap:               0.2
 (Enter /opt/cluster/programs/g16-c.01/g16/l502.exe)
 Keep R1 ints in memory in symmetry-blocked form, NReq=3832613.
 FoFCou: FMM=F IPFlag=           0 FMFlag=           0 FMFlg1=           0
         NFxFlg=           0 DoJE=F BraDBF=F KetDBF=F FulRan=T
         wScrn=  0.000000 ICntrl=       600 IOpCl=  0 I1Cent=           0 NGrid=           0
         NMat0=    1 NMatS0=    861 NMatT0=    0 NMatD0=    1 NMtDS0=    0 NMtDT0=    0
 Petite list used in FoFCou.
 Closed shell SCF:
 Using DIIS extrapolation, IDIIS=  1040.
 NGot=   754974720 LenX=   754868251 LenY=   754865961
 Requested convergence on RMS density matrix=1.00D-08 within 200 cycles.
 Requested convergence on MAX density matrix=1.00D-06.
 Requested convergence on             energy=1.00D-06.
 No special actions if energy rises.

 Cycle   1  Pass 1  IDiag  1:
 E= -76.2776205456233    
 DIIS: error= 5.60D-02 at cycle   1 NSaved=   1.
 NSaved= 1 IEnMin= 1 EnMin= -76.2776205456233     IErMin= 1 ErrMin= 5.60D-02
 ErrMax= 5.60D-02  0.00D+00 EMaxC= 1.00D-01 BMatC= 1.01D-01 BMatP= 1.01D-01
 IDIUse=3 WtCom= 4.40D-01 WtEn= 5.60D-01
 Coeff-Com:  0.100D+01
 Coeff-En:   0.100D+01
 Coeff:      0.100D+01
 Gap=     0.174 Goal=   None    Shift=    0.000
 GapD=    0.174 DampG=1.000 DampE=0.500 DampFc=0.5000 IDamp=-1.
 Damping current iteration by 5.00D-01
 RMSDP=1.02D-02 MaxDP=1.74D-01              OVMax= 2.13D-01

 Cycle   2  Pass 1  IDiag  1:
 E= -76.2994392551776     Delta-E=       -0.021818709554 Rises=F Damp=T
 DIIS: error= 1.59D-02 at cycle   2 NSaved=   2.
 NSaved= 2 IEnMin= 2 EnMin= -76.2994392551776     IErMin= 2 ErrMin= 1.59D-02
 ErrMax= 1.59D-02  0.00D+00 EMaxC= 1.00D-01 BMatC= 6.86D-03 BMatP= 1.01D-01
 IDIUse=3 WtCom= 8.41D-01 WtEn= 1.59D-01
 Coeff-Com:  0.194D+00 0.806D+00
 Coeff-En:   0.341D+00 0.659D+00
 Coeff:      0.218D+00 0.782D+00
 Gap=     0.318 Goal=   None    Shift=    0.000
 RMSDP=1.20D-03 MaxDP=1.45D-02 DE=-2.18D-02 OVMax= 1.33D-01

 Cycle   3  Pass 1  IDiag  1:
 E= -76.3525838084637     Delta-E=       -0.053144553286 Rises=F Damp=F
 DIIS: error= 5.23D-04 at cycle   3 NSaved=   3.
 NSaved= 3 IEnMin= 3 EnMin= -76.3525838084637     IErMin= 3 ErrMin= 5.23D-04
 ErrMax= 5.23D-04  0.00D+00 EMaxC= 1.00D-01 BMatC= 2.02D-05 BMatP= 6.86D-03
 IDIUse=3 WtCom= 9.95D-01 WtEn= 5.23D-03
 Coeff-Com:  0.628D-02-0.163D-01 0.101D+01
 Coeff-En:   0.000D+00 0.000D+00 0.100D+01
 Coeff:      0.624D-02-0.162D-01 0.101D+01
 Gap=     0.328 Goal=   None    Shift=    0.000
 RMSDP=1.38D-04 MaxDP=1.25D-03 DE=-5.31D-02 OVMax= 1.21D-03

 Cycle   4  Pass 1  IDiag  1:
 E= -76.3525952419979     Delta-E=       -0.000011433534 Rises=F Damp=F
 DIIS: error= 2.57D-04 at cycle   4 NSaved=   4.
 NSaved= 4 IEnMin= 4 EnMin= -76.3525952419979     IErMin= 4 ErrMin= 2.57D-04
 ErrMax= 2.57D-04  0.00D+00 EMaxC= 1.00D-01 BMatC= 2.53D-06 BMatP= 2.02D-05
 IDIUse=3 WtCom= 9.97D-01 WtEn= 2.57D-03
 Coeff-Com:  0.236D-02-0.120D-01 0.205D+00 0.805D+00
 Coeff-En:   0.000D+00 0.000D+00 0.000D+00 0.100D+01
 Coeff:      0.235D-02-0.119D-01 0.204D+00 0.805D+00
 Gap=     0.328 Goal=   None    Shift=    0.000
 RMSDP=1.61D-05 MaxDP=2.71D-04 DE=-1.14D-05 OVMax= 3.84D-04

 Cycle   5  Pass 1  IDiag  1:
 E= -76.3525969197667     Delta-E=       -0.000001677769 Rises=F Damp=F
 DIIS: error= 7.30D-05 at cycle   5 NSaved=   5.
 NSaved= 5 IEnMin= 5 EnMin= -76.3525969197667     IErMin= 5 ErrMin= 7.30D-05
 ErrMax= 7.30D-05  0.00D+00 EMaxC= 1.00D-01 BMatC= 1.33D-07 BMatP= 2.53D-06
 IDIUse=1 WtCom= 1.00D+00 WtEn= 0.00D+00
 Coeff-Com:  0.100D-02-0.161D-02 0.363D-02 0.850D-01 0.912D+00
 Coeff:      0.100D-02-0.161D-02 0.363D-02 0.850D-01 0.912D+00
 Gap=     0.329 Goal=   None    Shift=    0.000
 RMSDP=4.67D-06 MaxDP=7.84D-05 DE=-1.68D-06 OVMax= 1.03D-04

 Cycle   6  Pass 1  IDiag  1:
 E= -76.3525970205971     Delta-E=       -0.000000100830 Rises=F Damp=F
 DIIS: error= 4.29D-06 at cycle   6 NSaved=   6.
 NSaved= 6 IEnMin= 6 EnMin= -76.3525970205971     IErMin= 6 ErrMin= 4.29D-06
 ErrMax= 4.29D-06  0.00D+00 EMaxC= 1.00D-01 BMatC= 4.10D-10 BMatP= 1.33D-07
 IDIUse=1 WtCom= 1.00D+00 WtEn= 0.00D+00
 Coeff-Com: -0.439D-04 0.685D-04-0.458D-03-0.120D-01-0.659D-01 0.108D+01
 Coeff:     -0.439D-04 0.685D-04-0.458D-03-0.120D-01-0.659D-01 0.108D+01
 Gap=     0.329 Goal=   None    Shift=    0.000
 RMSDP=3.60D-07 MaxDP=6.44D-06 DE=-1.01D-07 OVMax= 8.41D-06

 Cycle   7  Pass 1  IDiag  1:
 E= -76.3525970209291     Delta-E=       -0.000000000332 Rises=F Damp=F
 DIIS: error= 1.98D-07 at cycle   7 NSaved=   7.
 NSaved= 7 IEnMin= 7 EnMin= -76.3525970209291     IErMin= 7 ErrMin= 1.98D-07
 ErrMax= 1.98D-07  0.00D+00 EMaxC= 1.00D-01 BMatC= 1.14D-12 BMatP= 4.10D-10
 IDIUse=1 WtCom= 1.00D+00 WtEn= 0.00D+00
 Coeff-Com: -0.479D-05 0.683D-05-0.207D-04 0.141D-03 0.363D-04-0.567D-01
 Coeff-Com:  0.106D+01
 Coeff:     -0.479D-05 0.683D-05-0.207D-04 0.141D-03 0.363D-04-0.567D-01
 Coeff:      0.106D+01
 Gap=     0.329 Goal=   None    Shift=    0.000
 RMSDP=2.02D-08 MaxDP=3.89D-07 DE=-3.32D-10 OVMax= 7.17D-07

 Cycle   8  Pass 1  IDiag  1:
 E= -76.3525970209302     Delta-E=       -0.000000000001 Rises=F Damp=F
 DIIS: error= 1.61D-08 at cycle   8 NSaved=   8.
 NSaved= 8 IEnMin= 8 EnMin= -76.3525970209302     IErMin= 8 ErrMin= 1.61D-08
 ErrMax= 1.61D-08  0.00D+00 EMaxC= 1.00D-01 BMatC= 5.43D-15 BMatP= 1.14D-12
 IDIUse=1 WtCom= 1.00D+00 WtEn= 0.00D+00
 Coeff-Com:  0.472D-06-0.526D-06 0.371D-06 0.616D-04 0.450D-03-0.289D-02
 Coeff-Com: -0.794D-01 0.108D+01
 Coeff:      0.472D-06-0.526D-06 0.371D-06 0.616D-04 0.450D-03-0.289D-02
 Coeff:     -0.794D-01 0.108D+01
 Gap=     0.329 Goal=   None    Shift=    0.000
 RMSDP=1.70D-09 MaxDP=3.59D-08 DE=-1.18D-12 OVMax= 6.11D-08

 SCF Done:  E(RPBE1PBE) =  -76.3525970209     A.U. after    8 cycles
            NFock=  8  Conv=0.17D-08     -V/T= 2.0029
 KE= 7.613186347343D+01 PE=-1.999190699575D+02 EE= 3.777397026939D+01
 Leave Link  502 at Mon Mar 20 17:33:06 2023, MaxMem=   754974720 cpu:               1.6 elap:               0.5
 (Enter /opt/cluster/programs/g16-c.01/g16/l601.exe)
 Copying SCF densities to generalized density rwf, IOpCl= 0 IROHF=0.

 **********************************************************************

            Population analysis using the SCF Density.

 **********************************************************************

 Orbital symmetries:
       Occupied  (A1) (A1) (B2) (A1) (B1)
       Virtual   (A1) (B2) (A1) (B1) (A1) (B2) (B2) (A1) (A2) (A1)
                 (B1) (B2) (A1) (B2) (B2) (A1) (B1) (A1) (A2) (A1)
                 (B1) (B2) (A1) (B2) (A2) (B1) (A1) (B2) (A1) (B2)
                 (A1) (B1) (A1) (A2) (A1) (B2)
 The electronic state is 1-A1.
 Alpha  occ. eigenvalues --  -19.21877  -1.06420  -0.59119  -0.39770  -0.33580
 Alpha virt. eigenvalues --   -0.00727   0.03378   0.11518   0.12958   0.14674
 Alpha virt. eigenvalues --    0.16836   0.21020   0.23171   0.29078   0.33212
 Alpha virt. eigenvalues --    0.35649   0.45126   0.53663   0.54671   0.68130
 Alpha virt. eigenvalues --    0.73489   0.90062   0.90944   0.96968   1.16079
 Alpha virt. eigenvalues --    1.24408   1.27110   1.34527   1.77477   1.83321
 Alpha virt. eigenvalues --    1.85900   2.23738   2.23847   2.41253   2.47111
 Alpha virt. eigenvalues --    2.60138   3.29741   3.31325   3.34805   3.81360
 Alpha virt. eigenvalues --    3.97365
          Condensed to atoms (all electrons):
               1          2          3
     1  O    7.421559   0.355247   0.355247
     2  H    0.355247   0.683748  -0.105022
     3  H    0.355247  -0.105022   0.683748
 Mulliken charges:
               1
     1  O   -0.132054
     2  H    0.066027
     3  H    0.066027
 Sum of Mulliken charges =  -0.00000
 Mulliken charges with hydrogens summed into heavy atoms:
               1
     1  O   -0.000000
 Electronic spatial extent (au):  <R**2>=             19.3154
 Charge=             -0.0000 electrons
 Dipole moment (field-independent basis, Debye):
    X=             -0.0000    Y=              0.0000    Z=             -1.6891  Tot=              1.6891
 Quadrupole moment (field-independent basis, Debye-Ang):
   XX=             -7.6418   YY=             -4.1982   ZZ=             -6.6675
   XY=              0.0000   XZ=              0.0000   YZ=             -0.0000
 Traceless Quadrupole moment (field-independent basis, Debye-Ang):
   XX=             -1.4726   YY=              1.9710   ZZ=             -0.4984
   XY=              0.0000   XZ=              0.0000   YZ=             -0.0000
 Octapole moment (field-independent basis, Debye-Ang**2):
  XXX=              0.0000  YYY=             -0.0000  ZZZ=             -0.9444  XYY=             -0.0000
  XXY=             -0.0000  XXZ=             -0.2608  XZZ=              0.0000  YZZ=             -0.0000
  YYZ=             -1.1596  XYZ=             -0.0000
 Hexadecapole moment (field-independent basis, Debye-Ang**3):
 XXXX=             -7.5025 YYYY=             -5.9919 ZZZZ=             -7.6313 XXXY=             -0.0000
 XXXZ=             -0.0000 YYYX=             -0.0000 YYYZ=              0.0000 ZZZX=             -0.0000
 ZZZY=              0.0000 XXYY=             -2.5950 XXZZ=             -2.5473 YYZZ=             -2.1795
 XXYZ=              0.0000 YYXZ=              0.0000 ZZXY=             -0.0000
 N-N= 9.660639193785D+00 E-N=-1.999190694621D+02  KE= 7.613186347343D+01
 Symmetry A1   KE= 6.798083105361D+01
 Symmetry A2   KE= 2.293975886706D-34
 Symmetry B1   KE= 4.436115446915D+00
 Symmetry B2   KE= 3.714916972904D+00
 No NMR shielding tensors so no spin-rotation constants.
 Leave Link  601 at Mon Mar 20 17:33:06 2023, MaxMem=   754974720 cpu:               0.9 elap:               0.3
 (Enter /opt/cluster/programs/g16-c.01/g16/l9999.exe)
 Unable to Open any file for archive entry.
 1\1\GINC-NODE60\SP\RPBE1PBE\Aug-CC-pVDZ\H2O1\BOITTIER\20-Mar-2023\0\\#
 P PBE1PBE/aug-cc-pVDZ scf(maxcycle=200)\\Gaussian input\\0,1\O,0,0.,0.
 11751,0.\H,0,0.7183372325,-0.4395112028,0.\H,0,-0.8043881657,-0.305858
 2544,0.\\Version=ES64L-G16RevC.01\State=1-A1\HF=-76.352597\RMSD=1.697e
 -09\Dipole=-0.0581066,-0.6620162,0.\Quadrupole=1.451337,-0.3564922,-1.
 0948449,-0.1599091,0.,0.\PG=C02V [C2(O1),SGV(H2)]\\@
 The archive entry for this job was punched.


 Everything starts as somebody's daydream.
                           -- Larry Niven
 Job cpu time:       0 days  0 hours  0 minutes  5.1 seconds.
 Elapsed time:       0 days  0 hours  0 minutes  1.6 seconds.
 File lengths (MBytes):  RWF=      6 Int=      0 D2E=      0 Chk=      1 Scr=      1
 Normal termination of Gaussian 16 at Mon Mar 20 17:33:07 2023.
