 Entering Gaussian System, Link 0=/opt/cluster/programs/g16-c.01/g16/g16
 Input=/scratch/boittier/jobs/tmp.7261670/gaussian_7_water_ccsdt_atz.com
 Output=/scratch/boittier/jobs/tmp.7261670/gaussian_7_water_ccsdt_atz.out
 Initial command:
 /opt/cluster/programs/g16-c.01/g16/l1.exe "/scratch/boittier/jobs/tmp.7261670/Gau-102646.inp" -scrdir="/scratch/boittier/jobs/tmp.7261670/"
 Entering Link 1 = /opt/cluster/programs/g16-c.01/g16/l1.exe PID=    102648.
  
 Copyright (c) 1988-2019, Gaussian, Inc.  All Rights Reserved.
  
 This is part of the Gaussian(R) 16 program.  It is based on
 the Gaussian(R) 09 system (copyright 2009, Gaussian, Inc.),
 the Gaussian(R) 03 system (copyright 2003, Gaussian, Inc.),
 the Gaussian(R) 98 system (copyright 1998, Gaussian, Inc.),
 the Gaussian(R) 94 system (copyright 1995, Gaussian, Inc.),
 the Gaussian 92(TM) system (copyright 1992, Gaussian, Inc.),
 the Gaussian 90(TM) system (copyright 1990, Gaussian, Inc.),
 the Gaussian 88(TM) system (copyright 1988, Gaussian, Inc.),
 the Gaussian 86(TM) system (copyright 1986, Carnegie Mellon
 University), and the Gaussian 82(TM) system (copyright 1983,
 Carnegie Mellon University). Gaussian is a federally registered
 trademark of Gaussian, Inc.
  
 This software contains proprietary and confidential information,
 including trade secrets, belonging to Gaussian, Inc.
  
 This software is provided under written license and may be
 used, copied, transmitted, or stored only in accord with that
 written license.
  
 The following legend is applicable only to US Government
 contracts under FAR:
  
                    RESTRICTED RIGHTS LEGEND
  
 Use, reproduction and disclosure by the US Government is
 subject to restrictions as set forth in subparagraphs (a)
 and (c) of the Commercial Computer Software - Restricted
 Rights clause in FAR 52.227-19.
  
 Gaussian, Inc.
 340 Quinnipiac St., Bldg. 40, Wallingford CT 06492
  
  
 ---------------------------------------------------------------
 Warning -- This program may not be used in any manner that
 competes with the business of Gaussian, Inc. or will provide
 assistance to any competitor of Gaussian, Inc.  The licensee
 of this program is prohibited from giving any competitor of
 Gaussian, Inc. access to this program.  By using this program,
 the user acknowledges that Gaussian, Inc. is engaged in the
 business of creating and licensing software in the field of
 computational chemistry and represents and warrants to the
 licensee that it is not a competitor of Gaussian, Inc. and that
 it will not use this program in any manner prohibited above.
 ---------------------------------------------------------------
  

 Cite this work as:
 Gaussian 16, Revision C.01,
 M. J. Frisch, G. W. Trucks, H. B. Schlegel, G. E. Scuseria, 
 M. A. Robb, J. R. Cheeseman, G. Scalmani, V. Barone, 
 G. A. Petersson, H. Nakatsuji, X. Li, M. Caricato, A. V. Marenich, 
 J. Bloino, B. G. Janesko, R. Gomperts, B. Mennucci, H. P. Hratchian, 
 J. V. Ortiz, A. F. Izmaylov, J. L. Sonnenberg, D. Williams-Young, 
 F. Ding, F. Lipparini, F. Egidi, J. Goings, B. Peng, A. Petrone, 
 T. Henderson, D. Ranasinghe, V. G. Zakrzewski, J. Gao, N. Rega, 
 G. Zheng, W. Liang, M. Hada, M. Ehara, K. Toyota, R. Fukuda, 
 J. Hasegawa, M. Ishida, T. Nakajima, Y. Honda, O. Kitao, H. Nakai, 
 T. Vreven, K. Throssell, J. A. Montgomery, Jr., J. E. Peralta, 
 F. Ogliaro, M. J. Bearpark, J. J. Heyd, E. N. Brothers, K. N. Kudin, 
 V. N. Staroverov, T. A. Keith, R. Kobayashi, J. Normand, 
 K. Raghavachari, A. P. Rendell, J. C. Burant, S. S. Iyengar, 
 J. Tomasi, M. Cossi, J. M. Millam, M. Klene, C. Adamo, R. Cammi, 
 J. W. Ochterski, R. L. Martin, K. Morokuma, O. Farkas, 
 J. B. Foresman, and D. J. Fox, Gaussian, Inc., Wallingford CT, 2019.
 
 ******************************************
 Gaussian 16:  ES64L-G16RevC.01  3-Jul-2019
                 8-Feb-2023 
 ******************************************
 %nproc=4
 Will use up to    4 processors via shared memory.
 %mem=5760MB
 %chk=gaussian_7_water_ccsdt_atz.chk
 ----------------------------------------
 #P CCSD(T)/aug-cc-pVTZ scf(maxcycle=200)
 ----------------------------------------
 1/38=1,172=1/1;
 2/12=2,17=6,18=5,40=1/2;
 3/5=16,6=1,7=10,11=9,25=1,30=1/1,2,3;
 4//1;
 5/5=2,7=200,38=5/2;
 8/6=4,9=120000,10=1/1,4;
 9/5=7,14=2/13;
 6/7=2,8=2,9=2,10=2/1;
 99/5=1,9=1/99;
 Leave Link    1 at Wed Feb  8 13:46:40 2023, MaxMem=   754974720 cpu:               1.3 elap:               2.0
 (Enter /opt/cluster/programs/g16-c.01/g16/l101.exe)
 --------------
 Gaussian input
 --------------
 Symbolic Z-matrix:
 Charge =  0 Multiplicity = 1
 O                     0.        0.11751   0. 
 H                     0.71834  -0.43951   0. 
 H                    -0.65653  -0.51118   0. 
 
 ITRead=  0  0  0
 MicOpt= -1 -1 -1
 NAtoms=      3 NQM=        3 NQMF=       0 NMMI=      0 NMMIF=      0
                NMic=       0 NMicF=      0.
                    Isotopes and Nuclear Properties:
 (Nuclear quadrupole moments (NQMom) in fm**2, nuclear magnetic moments (NMagM)
  in nuclear magnetons)

  Atom         1           2           3
 IAtWgt=          16           1           1
 AtmWgt=  15.9949146   1.0078250   1.0078250
 NucSpn=           0           1           1
 AtZEff=  -0.0000000  -0.0000000  -0.0000000
 NQMom=    0.0000000   0.0000000   0.0000000
 NMagM=    0.0000000   2.7928460   2.7928460
 AtZNuc=   8.0000000   1.0000000   1.0000000
 Leave Link  101 at Wed Feb  8 13:46:46 2023, MaxMem=   754974720 cpu:               0.8 elap:               0.4
 (Enter /opt/cluster/programs/g16-c.01/g16/l202.exe)
                          Input orientation:                          
 ---------------------------------------------------------------------
 Center     Atomic      Atomic             Coordinates (Angstroms)
 Number     Number       Type             X           Y           Z
 ---------------------------------------------------------------------
      1          8           0        0.000000    0.117510    0.000000
      2          1           0        0.718337   -0.439511    0.000000
      3          1           0       -0.656531   -0.511177    0.000000
 ---------------------------------------------------------------------
                    Distance matrix (angstroms):
                    1          2          3
     1  O    0.000000
     2  H    0.909000   0.000000
     3  H    0.909000   1.376735   0.000000
 Stoichiometry    H2O
 Framework group  C2V[C2(O),SGV(H2)]
 Deg. of freedom     2
 Full point group                 C2V     NOp   4
 Largest Abelian subgroup         C2V     NOp   4
 Largest concise Abelian subgroup C2      NOp   2
                         Standard orientation:                         
 ---------------------------------------------------------------------
 Center     Atomic      Atomic             Coordinates (Angstroms)
 Number     Number       Type             X           Y           Z
 ---------------------------------------------------------------------
      1          8           0        0.000000    0.000000    0.118732
      2          1           0       -0.000000    0.688368   -0.474927
      3          1           0       -0.000000   -0.688368   -0.474927
 ---------------------------------------------------------------------
 Rotational constants (GHZ):         801.0752429         529.1285735         318.6517700
 Leave Link  202 at Wed Feb  8 13:46:51 2023, MaxMem=   754974720 cpu:               0.1 elap:               0.1
 (Enter /opt/cluster/programs/g16-c.01/g16/l301.exe)
 Standard basis: Aug-CC-pVTZ (5D, 7F)
 Ernie: Thresh=  0.10000D-02 Tol=  0.10000D-05 Strict=F.
 Ernie:  3 primitive shells out of 52 were deleted.
 There are    42 symmetry adapted cartesian basis functions of A1  symmetry.
 There are    12 symmetry adapted cartesian basis functions of A2  symmetry.
 There are    20 symmetry adapted cartesian basis functions of B1  symmetry.
 There are    31 symmetry adapted cartesian basis functions of B2  symmetry.
 There are    35 symmetry adapted basis functions of A1  symmetry.
 There are    12 symmetry adapted basis functions of A2  symmetry.
 There are    18 symmetry adapted basis functions of B1  symmetry.
 There are    27 symmetry adapted basis functions of B2  symmetry.
    92 basis functions,   126 primitive gaussians,   105 cartesian basis functions
     5 alpha electrons        5 beta electrons
       nuclear repulsion energy         9.6988214462 Hartrees.
 IExCor=    0 DFT=F Ex=HF Corr=None ExCW=0 ScaHFX=  1.000000
 ScaDFX=  1.000000  1.000000  1.000000  1.000000 ScalE2=  1.000000  1.000000
 IRadAn=      5 IRanWt=     -1 IRanGd=            0 ICorTp=0 IEmpDi=  4
 NAtoms=    3 NActive=    3 NUniq=    2 SFac= 2.25D+00 NAtFMM=   60 NAOKFM=F Big=F
 Integral buffers will be    131072 words long.
 Raffenetti 1 integral format.
 Two-electron integral symmetry is turned on.
 Leave Link  301 at Wed Feb  8 13:46:58 2023, MaxMem=   754974720 cpu:               0.3 elap:               0.2
 (Enter /opt/cluster/programs/g16-c.01/g16/l302.exe)
 NPDir=0 NMtPBC=     1 NCelOv=     1 NCel=       1 NClECP=     1 NCelD=      1
         NCelK=      1 NCelE2=     1 NClLst=     1 CellRange=     0.0.
 One-electron integrals computed using PRISM.
 One-electron integral symmetry used in STVInt
 NBasis=    92 RedAO= T EigKep=  3.40D-04  NBF=    35    12    18    27
 NBsUse=    92 1.00D-06 EigRej= -1.00D+00 NBFU=    35    12    18    27
 Leave Link  302 at Wed Feb  8 13:47:06 2023, MaxMem=   754974720 cpu:               4.6 elap:               2.3
 (Enter /opt/cluster/programs/g16-c.01/g16/l303.exe)
 DipDrv:  MaxL=1.
 Leave Link  303 at Wed Feb  8 13:47:12 2023, MaxMem=   754974720 cpu:               0.6 elap:               0.3
 (Enter /opt/cluster/programs/g16-c.01/g16/l401.exe)
 ExpMin= 2.53D-02 ExpMax= 1.53D+04 ExpMxC= 5.22D+02 IAcc=3 IRadAn=         5 AccDes= 0.00D+00
 Harris functional with IExCor=  205 and IRadAn=       5 diagonalized for initial guess.
 HarFok:  IExCor=  205 AccDes= 0.00D+00 IRadAn=         5 IDoV= 1 UseB2=F ITyADJ=14
 ICtDFT=  3500011 ScaDFX=  1.000000  1.000000  1.000000  1.000000
 FoFCou: FMM=F IPFlag=           0 FMFlag=      100000 FMFlg1=           0
         NFxFlg=           0 DoJE=T BraDBF=F KetDBF=T FulRan=T
         wScrn=  0.000000 ICntrl=       500 IOpCl=  0 I1Cent=   200000004 NGrid=           0
         NMat0=    1 NMatS0=      1 NMatT0=    0 NMatD0=    1 NMtDS0=    0 NMtDT0=    0
 Petite list used in FoFCou.
 Harris En= -76.1504903165432    
 JPrj=0 DoOrth=F DoCkMO=F.
 Initial guess orbital symmetries:
       Occupied  (A1) (A1) (B2) (A1) (B1)
       Virtual   (A1) (B2) (A1) (B1) (A1) (B2) (B2) (A1) (A2) (B1)
                 (A1) (B2) (A1) (B2) (B2) (A1) (A1) (B1) (A2) (B1)
                 (A1) (A1) (B1) (B2) (A2) (A1) (B2) (B2) (A1) (B1)
                 (B2) (A1) (B2) (A2) (A1) (A2) (B1) (A1) (B2) (B2)
                 (A1) (B1) (A1) (A2) (A1) (B2) (B1) (A1) (B2) (B1)
                 (A1) (B2) (A2) (A1) (B2) (B1) (A2) (A1) (B1) (B2)
                 (A1) (A2) (B1) (B2) (A1) (B2) (B2) (A2) (A1) (B2)
                 (B1) (A1) (A1) (B2) (B1) (B1) (A1) (A2) (A1) (B1)
                 (B2) (A2) (A1) (A1) (B2) (B2) (A1)
 The electronic state of the initial guess is 1-A1.
 Leave Link  401 at Wed Feb  8 13:47:22 2023, MaxMem=   754974720 cpu:               6.9 elap:               3.5
 (Enter /opt/cluster/programs/g16-c.01/g16/l502.exe)
 Keep R1 ints in memory in symmetry-blocked form, NReq=11496777.
 FoFCou: FMM=F IPFlag=           0 FMFlag=           0 FMFlg1=           0
         NFxFlg=           0 DoJE=F BraDBF=F KetDBF=F FulRan=T
         wScrn=  0.000000 ICntrl=       600 IOpCl=  0 I1Cent=           0 NGrid=           0
         NMat0=    1 NMatS0=   4278 NMatT0=    0 NMatD0=    1 NMtDS0=    0 NMtDT0=    0
 Petite list used in FoFCou.
 Closed shell SCF:
 Using DIIS extrapolation, IDIIS=  1040.
 NGot=   754974720 LenX=   752607631 LenY=   752596165
 Requested convergence on RMS density matrix=1.00D-08 within 200 cycles.
 Requested convergence on MAX density matrix=1.00D-06.
 Requested convergence on             energy=1.00D-06.
 No special actions if energy rises.

 Cycle   1  Pass 1  IDiag  1:
 E= -75.9610006817211    
 DIIS: error= 5.67D-02 at cycle   1 NSaved=   1.
 NSaved= 1 IEnMin= 1 EnMin= -75.9610006817211     IErMin= 1 ErrMin= 5.67D-02
 ErrMax= 5.67D-02  0.00D+00 EMaxC= 1.00D-01 BMatC= 2.17D-01 BMatP= 2.17D-01
 IDIUse=3 WtCom= 4.33D-01 WtEn= 5.67D-01
 Coeff-Com:  0.100D+01
 Coeff-En:   0.100D+01
 Coeff:      0.100D+01
 Gap=     0.449 Goal=   None    Shift=    0.000
 GapD=    0.449 DampG=2.000 DampE=0.500 DampFc=1.0000 IDamp=-1.
 RMSDP=2.24D-03 MaxDP=5.14D-02              OVMax= 1.26D-01

 Cycle   2  Pass 1  IDiag  1:
 E= -76.0198571141953     Delta-E=       -0.058856432474 Rises=F Damp=F
 DIIS: error= 3.42D-02 at cycle   2 NSaved=   2.
 NSaved= 2 IEnMin= 2 EnMin= -76.0198571141953     IErMin= 2 ErrMin= 3.42D-02
 ErrMax= 3.42D-02  0.00D+00 EMaxC= 1.00D-01 BMatC= 6.05D-02 BMatP= 2.17D-01
 IDIUse=3 WtCom= 6.58D-01 WtEn= 3.42D-01
 Coeff-Com:  0.319D+00 0.681D+00
 Coeff-En:   0.171D+00 0.829D+00
 Coeff:      0.268D+00 0.732D+00
 Gap=     0.573 Goal=   None    Shift=    0.000
 RMSDP=1.31D-03 MaxDP=3.46D-02 DE=-5.89D-02 OVMax= 6.44D-02

 Cycle   3  Pass 1  IDiag  1:
 E= -76.0548462907294     Delta-E=       -0.034989176534 Rises=F Damp=F
 DIIS: error= 7.12D-03 at cycle   3 NSaved=   3.
 NSaved= 3 IEnMin= 3 EnMin= -76.0548462907294     IErMin= 3 ErrMin= 7.12D-03
 ErrMax= 7.12D-03  0.00D+00 EMaxC= 1.00D-01 BMatC= 2.72D-03 BMatP= 6.05D-02
 IDIUse=3 WtCom= 9.29D-01 WtEn= 7.12D-02
 Coeff-Com: -0.295D-01 0.143D+00 0.886D+00
 Coeff-En:   0.000D+00 0.000D+00 0.100D+01
 Coeff:     -0.274D-01 0.133D+00 0.894D+00
 Gap=     0.544 Goal=   None    Shift=    0.000
 RMSDP=2.08D-04 MaxDP=4.14D-03 DE=-3.50D-02 OVMax= 1.16D-02

 Cycle   4  Pass 1  IDiag  1:
 E= -76.0564903378609     Delta-E=       -0.001644047131 Rises=F Damp=F
 DIIS: error= 4.48D-04 at cycle   4 NSaved=   4.
 NSaved= 4 IEnMin= 4 EnMin= -76.0564903378609     IErMin= 4 ErrMin= 4.48D-04
 ErrMax= 4.48D-04  0.00D+00 EMaxC= 1.00D-01 BMatC= 9.31D-06 BMatP= 2.72D-03
 IDIUse=3 WtCom= 9.96D-01 WtEn= 4.48D-03
 Coeff-Com:  0.656D-02-0.500D-01-0.243D+00 0.129D+01
 Coeff-En:   0.000D+00 0.000D+00 0.000D+00 0.100D+01
 Coeff:      0.653D-02-0.498D-01-0.242D+00 0.129D+01
 Gap=     0.545 Goal=   None    Shift=    0.000
 RMSDP=3.16D-05 MaxDP=6.19D-04 DE=-1.64D-03 OVMax= 1.95D-03

 Cycle   5  Pass 1  IDiag  1:
 E= -76.0565066390087     Delta-E=       -0.000016301148 Rises=F Damp=F
 DIIS: error= 1.26D-04 at cycle   5 NSaved=   5.
 NSaved= 5 IEnMin= 5 EnMin= -76.0565066390087     IErMin= 5 ErrMin= 1.26D-04
 ErrMax= 1.26D-04  0.00D+00 EMaxC= 1.00D-01 BMatC= 4.33D-07 BMatP= 9.31D-06
 IDIUse=3 WtCom= 9.99D-01 WtEn= 1.26D-03
 Coeff-Com: -0.218D-03 0.480D-02 0.227D-01-0.328D+00 0.130D+01
 Coeff-En:   0.000D+00 0.000D+00 0.000D+00 0.000D+00 0.100D+01
 Coeff:     -0.217D-03 0.480D-02 0.227D-01-0.327D+00 0.130D+01
 Gap=     0.546 Goal=   None    Shift=    0.000
 RMSDP=8.85D-06 MaxDP=1.74D-04 DE=-1.63D-05 OVMax= 5.49D-04

 Cycle   6  Pass 1  IDiag  1:
 E= -76.0565076393103     Delta-E=       -0.000001000302 Rises=F Damp=F
 DIIS: error= 1.61D-05 at cycle   6 NSaved=   6.
 NSaved= 6 IEnMin= 6 EnMin= -76.0565076393103     IErMin= 6 ErrMin= 1.61D-05
 ErrMax= 1.61D-05  0.00D+00 EMaxC= 1.00D-01 BMatC= 1.08D-08 BMatP= 4.33D-07
 IDIUse=1 WtCom= 1.00D+00 WtEn= 0.00D+00
 Coeff-Com: -0.101D-03-0.184D-03-0.175D-02 0.737D-01-0.440D+00 0.137D+01
 Coeff:     -0.101D-03-0.184D-03-0.175D-02 0.737D-01-0.440D+00 0.137D+01
 Gap=     0.546 Goal=   None    Shift=    0.000
 RMSDP=1.48D-06 MaxDP=3.59D-05 DE=-1.00D-06 OVMax= 9.39D-05

 Cycle   7  Pass 1  IDiag  1:
 E= -76.0565076670447     Delta-E=       -0.000000027734 Rises=F Damp=F
 DIIS: error= 2.66D-06 at cycle   7 NSaved=   7.
 NSaved= 7 IEnMin= 7 EnMin= -76.0565076670447     IErMin= 7 ErrMin= 2.66D-06
 ErrMax= 2.66D-06  0.00D+00 EMaxC= 1.00D-01 BMatC= 2.81D-10 BMatP= 1.08D-08
 IDIUse=1 WtCom= 1.00D+00 WtEn= 0.00D+00
 Coeff-Com:  0.372D-04-0.876D-04-0.992D-04-0.127D-01 0.997D-01-0.432D+00
 Coeff-Com:  0.134D+01
 Coeff:      0.372D-04-0.876D-04-0.992D-04-0.127D-01 0.997D-01-0.432D+00
 Coeff:      0.134D+01
 Gap=     0.546 Goal=   None    Shift=    0.000
 RMSDP=2.19D-07 MaxDP=4.93D-06 DE=-2.77D-08 OVMax= 1.56D-05

 Cycle   8  Pass 1  IDiag  1:
 E= -76.0565076677478     Delta-E=       -0.000000000703 Rises=F Damp=F
 DIIS: error= 4.74D-07 at cycle   8 NSaved=   8.
 NSaved= 8 IEnMin= 8 EnMin= -76.0565076677478     IErMin= 8 ErrMin= 4.74D-07
 ErrMax= 4.74D-07  0.00D+00 EMaxC= 1.00D-01 BMatC= 7.16D-12 BMatP= 2.81D-10
 IDIUse=1 WtCom= 1.00D+00 WtEn= 0.00D+00
 Coeff-Com:  0.148D-05 0.178D-04 0.958D-04-0.250D-02 0.121D-01-0.279D-01
 Coeff-Com: -0.858D-01 0.110D+01
 Coeff:      0.148D-05 0.178D-04 0.958D-04-0.250D-02 0.121D-01-0.279D-01
 Coeff:     -0.858D-01 0.110D+01
 Gap=     0.546 Goal=   None    Shift=    0.000
 RMSDP=4.12D-08 MaxDP=7.54D-07 DE=-7.03D-10 OVMax= 2.32D-06

 Cycle   9  Pass 1  IDiag  1:
 E= -76.0565076677647     Delta-E=       -0.000000000017 Rises=F Damp=F
 DIIS: error= 9.60D-08 at cycle   9 NSaved=   9.
 NSaved= 9 IEnMin= 9 EnMin= -76.0565076677647     IErMin= 9 ErrMin= 9.60D-08
 ErrMax= 9.60D-08  0.00D+00 EMaxC= 1.00D-01 BMatC= 2.72D-13 BMatP= 7.16D-12
 IDIUse=1 WtCom= 1.00D+00 WtEn= 0.00D+00
 Coeff-Com: -0.111D-05 0.492D-06-0.826D-05 0.605D-03-0.364D-02 0.139D-01
 Coeff-Com: -0.296D-01-0.149D+00 0.117D+01
 Coeff:     -0.111D-05 0.492D-06-0.826D-05 0.605D-03-0.364D-02 0.139D-01
 Coeff:     -0.296D-01-0.149D+00 0.117D+01
 Gap=     0.546 Goal=   None    Shift=    0.000
 RMSDP=1.02D-08 MaxDP=2.35D-07 DE=-1.69D-11 OVMax= 4.69D-07

 Cycle  10  Pass 1  IDiag  1:
 E= -76.0565076677653     Delta-E=       -0.000000000001 Rises=F Damp=F
 DIIS: error= 2.12D-08 at cycle  10 NSaved=  10.
 NSaved=10 IEnMin=10 EnMin= -76.0565076677653     IErMin=10 ErrMin= 2.12D-08
 ErrMax= 2.12D-08  0.00D+00 EMaxC= 1.00D-01 BMatC= 1.06D-14 BMatP= 2.72D-13
 IDIUse=1 WtCom= 1.00D+00 WtEn= 0.00D+00
 Coeff-Com:  0.348D-06-0.672D-06 0.383D-06-0.145D-03 0.931D-03-0.406D-02
 Coeff-Com:  0.136D-01 0.139D-01-0.389D+00 0.136D+01
 Coeff:      0.348D-06-0.672D-06 0.383D-06-0.145D-03 0.931D-03-0.406D-02
 Coeff:      0.136D-01 0.139D-01-0.389D+00 0.136D+01
 Gap=     0.546 Goal=   None    Shift=    0.000
 RMSDP=2.27D-09 MaxDP=4.14D-08 DE=-5.68D-13 OVMax= 9.63D-08

 SCF Done:  E(RHF) =  -76.0565076678     A.U. after   10 cycles
            NFock= 10  Conv=0.23D-08     -V/T= 1.9984
 KE= 7.617950413171D+01 PE=-2.000895805335D+02 EE= 3.815474728783D+01
 Leave Link  502 at Wed Feb  8 13:47:31 2023, MaxMem=   754974720 cpu:               8.1 elap:               4.0
 (Enter /opt/cluster/programs/g16-c.01/g16/l801.exe)
 Windowed orbitals will be sorted by symmetry type.
 ExpMin= 2.53D-02 ExpMax= 1.53D+04 ExpMxC= 5.22D+02 IAcc=3 IRadAn=         5 AccDes= 0.00D+00
 HarFok:  IExCor=  205 AccDes= 0.00D+00 IRadAn=         5 IDoV=-2 UseB2=F ITyADJ=14
 ICtDFT= 12500011 ScaDFX=  1.000000  1.000000  1.000000  1.000000
 Largest valence mixing into a core orbital is  1.09D-04
 Largest core mixing into a valence orbital is  1.54D-05
 Range of M.O.s used for correlation:     2    92
 NBasis=    92 NAE=     5 NBE=     5 NFC=     1 NFV=     0
 NROrb=     91 NOA=     4 NOB=     4 NVA=    87 NVB=    87

 **** Warning!!: The largest alpha MO coefficient is  0.17229694D+02

 Leave Link  801 at Wed Feb  8 13:47:32 2023, MaxMem=   754974720 cpu:               0.4 elap:               0.1
 (Enter /opt/cluster/programs/g16-c.01/g16/l804.exe)
 Closed-shell transformation, MDV=   754974720 ITran=4 ISComp=2.
 Unit  1 TFree=        277513 TCopy=        242092.
 Semi-Direct transformation.
 ModeAB=           4 MOrb=             4 LenV=     754589018
 LASXX=       368428 LTotXX=      368428 LenRXX=      751146
 LTotAB=      382718 MaxLAS=     1379560 LenRXY=           0
 NonZer=     1119574 LenScr=     2357760 LnRSAI=     1379560
 LnScr1=     2758656 LExtra=           0 Total=      7247122
 MaxDsk=          -1 SrtSym=           T ITran=            4
 DoSDTr:  NPSUse=  4
 JobTyp=0 Pass  1:  I=   1 to   4.
 (rs|ai) integrals will be sorted in core.
 Complete sort for first half transformation.
 First half transformation complete.
 Complete sort for second half transformation.
 Second half transformation complete.
 Spin components of T(2) and E(2):
     alpha-alpha T2 =       0.7760699445D-02 E2=     -0.3220351404D-01
     alpha-beta  T2 =       0.4477407398D-01 E2=     -0.2006619275D+00
     beta-beta   T2 =       0.7760699445D-02 E2=     -0.3220351404D-01
 ANorm=    0.1029706498D+01
 E2 =    -0.2650689556D+00 EUMP2 =    -0.76321576623374D+02
 Leave Link  804 at Wed Feb  8 13:47:47 2023, MaxMem=   754974720 cpu:              26.3 elap:              13.2
 (Enter /opt/cluster/programs/g16-c.01/g16/l913.exe)
 CIDS:  MDV=   754974720.
 Frozen-core window:  NFC=   1 NFV=   0.
 IFCWin=0 IBDFC=1 NFBD=     0     0 NFCmp=     0     0 NFFFC=     0     0
 Using DD3R+UMP44R for 1st iteration.
 Using DD4RQ for 2nd and later iterations.
 Keep R2 and R3 ints in memory in symmetry-blocked form, NReq=11500115.
 FoFCou: FMM=F IPFlag=           0 FMFlag=           0 FMFlg1=           0
         NFxFlg=           0 DoJE=F BraDBF=F KetDBF=F FulRan=T
         wScrn=  0.000000 ICntrl=       600 IOpCl=  0 I1Cent=           0 NGrid=           0
         NMat0=    1 NMatS0=   4278 NMatT0=    0 NMatD0=    1 NMtDS0=    0 NMtDT0=    0
 Petite list used in FoFCou.
 CIDS: In Core Option IDoMem=           1.
 CCSD(T)
 =======
 Iterations=  50 Convergence= 0.100D-06
 Produce multiple copies of IABC intergrals
 Iteration Nr.   1
 **********************
 DD1Dir will call FoFMem   1 times, MxPair=        20
 NAB=    10 NAA=     0 NBB=     0.
 MP4(R+Q)=  0.38947202D-02
 Maximum subspace dimension=  5
 A-vector RMS=  2.6529069D-03 Max=  1.0898139D-02 conv= 1.00D-05.
 RLE energy=       -0.2646243485
 E3=       -0.34874324D-02        EUMP3=      -0.76325064056D+02
 E4(DQ)=   -0.34743829D-03        UMP4(DQ)=   -0.76325411494D+02
 E4(SDQ)=  -0.20254214D-02        UMP4(SDQ)=  -0.76327089477D+02
 VARIATIONAL ENERGIES WITH THE FIRST-ORDER WAVEFUNCTION:
 DE(Corr)= -0.26462361     E(Corr)=     -76.321131275    
 NORM(A)=   0.10296662D+01
 Iteration Nr.   2
 **********************
 DD1Dir will call FoFMem   1 times, MxPair=        20
 NAB=    10 NAA=     0 NBB=     0.
 A-vector RMS=  2.6956775D-04 Max=  1.9557391D-03 conv= 1.00D-05.
 RLE energy=       -0.2698571218
 DE(Corr)= -0.26950675     E(CORR)=     -76.326014418     Delta=-4.88D-03
 NORM(A)=   0.10314912D+01
 Iteration Nr.   3
 **********************
 DD1Dir will call FoFMem   1 times, MxPair=        20
 NAB=    10 NAA=     0 NBB=     0.
 A-vector RMS=  3.5492564D-04 Max=  1.9497376D-03 conv= 1.00D-05.
 RLE energy=       -0.2701155617
 DE(Corr)= -0.26980203     E(CORR)=     -76.326309697     Delta=-2.95D-04
 NORM(A)=   0.10318227D+01
 Iteration Nr.   4
 **********************
 DD1Dir will call FoFMem   1 times, MxPair=        20
 NAB=    10 NAA=     0 NBB=     0.
 A-vector RMS=  5.1376787D-05 Max=  3.2279349D-04 conv= 1.00D-05.
 RLE energy=       -0.2701422294
 DE(Corr)= -0.27011975     E(CORR)=     -76.326627416     Delta=-3.18D-04
 NORM(A)=   0.10319136D+01
 Iteration Nr.   5
 **********************
 DD1Dir will call FoFMem   1 times, MxPair=        20
 NAB=    10 NAA=     0 NBB=     0.
 A-vector RMS=  2.5950901D-05 Max=  1.6889624D-04 conv= 1.00D-05.
 RLE energy=       -0.2701515006
 DE(Corr)= -0.27014742     E(CORR)=     -76.326655083     Delta=-2.77D-05
 NORM(A)=   0.10319315D+01
 Iteration Nr.   6
 **********************
 DD1Dir will call FoFMem   1 times, MxPair=        20
 NAB=    10 NAA=     0 NBB=     0.
 A-vector RMS=  6.0389569D-06 Max=  3.7418273D-05 conv= 1.00D-05.
 RLE energy=       -0.2701486375
 DE(Corr)= -0.27014935     E(CORR)=     -76.326657021     Delta=-1.94D-06
 NORM(A)=   0.10319331D+01
 Iteration Nr.   7
 **********************
 DD1Dir will call FoFMem   1 times, MxPair=        20
 NAB=    10 NAA=     0 NBB=     0.
 A-vector RMS=  1.8874219D-06 Max=  1.0520422D-05 conv= 1.00D-05.
 RLE energy=       -0.2701485985
 DE(Corr)= -0.27014931     E(CORR)=     -76.326656980     Delta= 4.10D-08
 NORM(A)=   0.10319336D+01
 Iteration Nr.   8
 **********************
 DD1Dir will call FoFMem   1 times, MxPair=        20
 NAB=    10 NAA=     0 NBB=     0.
 A-vector RMS=  7.2429113D-07 Max=  4.8691988D-06 conv= 1.00D-05.
 RLE energy=       -0.2701490571
 DE(Corr)= -0.27014913     E(CORR)=     -76.326656797     Delta= 1.83D-07
 NORM(A)=   0.10319339D+01
 Iteration Nr.   9
 **********************
 DD1Dir will call FoFMem   1 times, MxPair=        20
 NAB=    10 NAA=     0 NBB=     0.
 A-vector RMS=  1.4089321D-07 Max=  8.1319523D-07 conv= 1.00D-05.
 RLE energy=       -0.2701491285
 DE(Corr)= -0.27014914     E(CORR)=     -76.326656806     Delta=-8.94D-09
 NORM(A)=   0.10319340D+01
 CI/CC converged in    9 iterations to DelEn=-8.94D-09 Conv= 1.00D-07 ErrA1= 1.41D-07 Conv= 1.00D-05
 Wavefunction amplitudes converged. E(Corr)=     -76.326656806    
 Largest amplitude= 1.85D-02
 IPart=  2 IA=    6   11.23% done.
 IPart=  2 IA=   11   21.79% done.
 IPart=  2 IA=   16   31.68% done.
 IPart=  4 IA=   21   40.90% done.
 IPart=  2 IA=   27   51.08% done.
 IPart=  4 IA=   33   60.30% done.
 IPart=  3 IA=   41   71.10% done.
 IPart=  3 IA=   49   80.19% done.
 IPart=  3 IA=   61   90.62% done.
 Time for triples=        6.78 seconds.
 T4(CCSD)= -0.84787767D-02
 T5(CCSD)=  0.28386440D-03
 CCSD(T)= -0.76334851718D+02
 Discarding MO integrals.
 Leave Link  913 at Wed Feb  8 13:48:51 2023, MaxMem=   754974720 cpu:             119.8 elap:              59.9
 (Enter /opt/cluster/programs/g16-c.01/g16/l601.exe)
 Copying SCF densities to generalized density rwf, IOpCl= 0 IROHF=0.

 **********************************************************************

            Population analysis using the SCF Density.

 **********************************************************************

 Orbital symmetries:
       Occupied  (A1) (A1) (B2) (A1) (B1)
       Virtual   (A1) (B2) (A1) (B1) (A1) (B2) (B2) (A1) (A2) (B1)
                 (A1) (B2) (A1) (B2) (B2) (A1) (A1) (A2) (B1) (A1)
                 (B1) (A1) (B1) (B2) (A2) (B2) (A1) (A1) (B2) (B1)
                 (B2) (A2) (A1) (B2) (A1) (A2) (B1) (A1) (B2) (B2)
                 (A1) (B1) (A1) (A2) (A1) (B1) (B2) (A1) (B2) (B1)
                 (B2) (A1) (A2) (A1) (B2) (A2) (A1) (B1) (B1) (B2)
                 (A1) (A2) (B1) (B2) (A1) (B2) (B2) (A2) (B2) (A1)
                 (B1) (A1) (A1) (B2) (B1) (A1) (B1) (A2) (B1) (B2)
                 (A1) (A2) (A1) (A1) (B2) (B2) (A1)
 The electronic state is 1-A1.
 Alpha  occ. eigenvalues --  -20.56057  -1.38529  -0.73172  -0.60646  -0.51626
 Alpha virt. eigenvalues --    0.02958   0.04822   0.13506   0.15713   0.17748
 Alpha virt. eigenvalues --    0.18408   0.23019   0.24844   0.26787   0.29721
 Alpha virt. eigenvalues --    0.30853   0.36962   0.44699   0.47536   0.59950
 Alpha virt. eigenvalues --    0.66938   0.70710   0.72725   0.72896   0.85032
 Alpha virt. eigenvalues --    0.85736   0.88873   0.90679   0.92357   0.92998
 Alpha virt. eigenvalues --    0.94456   0.95570   1.04627   1.06298   1.08492
 Alpha virt. eigenvalues --    1.11613   1.19286   1.20541   1.24439   1.49253
 Alpha virt. eigenvalues --    1.52931   1.60027   1.78882   1.91017   2.03569
 Alpha virt. eigenvalues --    2.17159   2.27418   2.32352   2.32874   2.42433
 Alpha virt. eigenvalues --    2.43555   2.44497   2.52079   2.63528   2.68026
 Alpha virt. eigenvalues --    2.78186   2.83776   2.91179   3.73716   3.74147
 Alpha virt. eigenvalues --    4.10291   4.11752   4.12556   4.23892   4.38058
 Alpha virt. eigenvalues --    4.38797   4.41073   4.45876   4.59335   4.80557
 Alpha virt. eigenvalues --    5.03900   5.19231   5.28081   5.41465   5.49094
 Alpha virt. eigenvalues --    5.69659   5.71719   6.29199   6.50457   6.72797
 Alpha virt. eigenvalues --    7.14261   7.15839   7.31554   7.34157   7.34294
 Alpha virt. eigenvalues --    7.39204   7.49764   7.67839   7.91138   8.19518
 Alpha virt. eigenvalues --    9.10120  17.45081
          Condensed to atoms (all electrons):
               1          2          3
     1  O    7.787927   0.284435   0.284435
     2  H    0.284435   0.539121  -0.001954
     3  H    0.284435  -0.001954   0.539121
 Mulliken charges:
               1
     1  O   -0.356796
     2  H    0.178398
     3  H    0.178398
 Sum of Mulliken charges =  -0.00000
 Mulliken charges with hydrogens summed into heavy atoms:
               1
     1  O   -0.000000
 Electronic spatial extent (au):  <R**2>=             18.8308
 Charge=             -0.0000 electrons
 Dipole moment (field-independent basis, Debye):
    X=             -0.0000    Y=             -0.0000    Z=             -2.0353  Tot=              2.0353
 Quadrupole moment (field-independent basis, Debye-Ang):
   XX=             -7.4362   YY=             -4.5942   ZZ=             -6.0371
   XY=              0.0000   XZ=              0.0000   YZ=              0.0000
 Traceless Quadrupole moment (field-independent basis, Debye-Ang):
   XX=             -1.4137   YY=              1.4283   ZZ=             -0.0146
   XY=              0.0000   XZ=              0.0000   YZ=              0.0000
 Octapole moment (field-independent basis, Debye-Ang**2):
  XXX=              0.0000  YYY=             -0.0000  ZZZ=             -1.2934  XYY=             -0.0000
  XXY=             -0.0000  XXZ=             -0.2938  XZZ=              0.0000  YZZ=             -0.0000
  YYZ=             -1.2369  XYZ=             -0.0000
 Hexadecapole moment (field-independent basis, Debye-Ang**3):
 XXXX=             -6.5394 YYYY=             -5.8008 ZZZZ=             -6.8606 XXXY=             -0.0000
 XXXZ=             -0.0000 YYYX=             -0.0000 YYYZ=              0.0000 ZZZX=             -0.0000
 ZZZY=             -0.0000 XXYY=             -2.2822 XXZZ=             -2.2874 YYZZ=             -1.7676
 XXYZ=             -0.0000 YYXZ=              0.0000 ZZXY=              0.0000
 N-N= 9.698821446205D+00 E-N=-2.000895805484D+02  KE= 7.617950413171D+01
 Symmetry A1   KE= 6.797809173996D+01
 Symmetry A2   KE= 1.221549538062D-19
 Symmetry B1   KE= 4.467031414350D+00
 Symmetry B2   KE= 3.734380977403D+00
 Leave Link  601 at Wed Feb  8 13:48:53 2023, MaxMem=   754974720 cpu:               2.5 elap:               1.3
 (Enter /opt/cluster/programs/g16-c.01/g16/l9999.exe)
 Unable to Open any file for archive entry.
 1\1\GINC-NODE64\SP\RCCSD(T)-FC\Aug-CC-pVTZ\H2O1\BOITTIER\08-Feb-2023\0
 \\#P CCSD(T)/aug-cc-pVTZ scf(maxcycle=200)\\Gaussian input\\0,1\O,0,0.
 ,0.11751,0.\H,0,0.7183372325,-0.4395112028,0.\H,0,-0.6565314262,-0.511
 1771133,0.\\Version=ES64L-G16RevC.01\State=1-A1\HF=-76.0565077\MP2=-76
 .3215766\MP3=-76.3250641\MP4D=-76.3293062\MP4DQ=-76.3254115\MP4SDQ=-76
 .3270895\CCSD=-76.3266568\CCSD(T)=-76.3348517\RMSD=2.269e-09\PG=C02V [
 C2(O1),SGV(H2)]\\@
 The archive entry for this job was punched.


 HE THAT RISETH LATE MUST TROT ALL DAY.

                  -- BENJAMIN FRANKLIN
 Job cpu time:       0 days  0 hours  2 minutes 52.2 seconds.
 Elapsed time:       0 days  0 hours  1 minutes 27.2 seconds.
 File lengths (MBytes):  RWF=     64 Int=      0 D2E=      0 Chk=      2 Scr=      1
 Normal termination of Gaussian 16 at Wed Feb  8 13:48:53 2023.
