 Entering Gaussian System, Link 0=/opt/cluster/programs/g16-c.01/g16/g16
 Input=/scratch/boittier/jobs/tmp.7262166/gaussian_33_water_ccsdt_adz.com
 Output=/scratch/boittier/jobs/tmp.7262166/gaussian_33_water_ccsdt_adz.out
 Initial command:
 /opt/cluster/programs/g16-c.01/g16/l1.exe "/scratch/boittier/jobs/tmp.7262166/Gau-139724.inp" -scrdir="/scratch/boittier/jobs/tmp.7262166/"
 Entering Link 1 = /opt/cluster/programs/g16-c.01/g16/l1.exe PID=    139725.
  
 Copyright (c) 1988-2019, Gaussian, Inc.  All Rights Reserved.
  
 This is part of the Gaussian(R) 16 program.  It is based on
 the Gaussian(R) 09 system (copyright 2009, Gaussian, Inc.),
 the Gaussian(R) 03 system (copyright 2003, Gaussian, Inc.),
 the Gaussian(R) 98 system (copyright 1998, Gaussian, Inc.),
 the Gaussian(R) 94 system (copyright 1995, Gaussian, Inc.),
 the Gaussian 92(TM) system (copyright 1992, Gaussian, Inc.),
 the Gaussian 90(TM) system (copyright 1990, Gaussian, Inc.),
 the Gaussian 88(TM) system (copyright 1988, Gaussian, Inc.),
 the Gaussian 86(TM) system (copyright 1986, Carnegie Mellon
 University), and the Gaussian 82(TM) system (copyright 1983,
 Carnegie Mellon University). Gaussian is a federally registered
 trademark of Gaussian, Inc.
  
 This software contains proprietary and confidential information,
 including trade secrets, belonging to Gaussian, Inc.
  
 This software is provided under written license and may be
 used, copied, transmitted, or stored only in accord with that
 written license.
  
 The following legend is applicable only to US Government
 contracts under FAR:
  
                    RESTRICTED RIGHTS LEGEND
  
 Use, reproduction and disclosure by the US Government is
 subject to restrictions as set forth in subparagraphs (a)
 and (c) of the Commercial Computer Software - Restricted
 Rights clause in FAR 52.227-19.
  
 Gaussian, Inc.
 340 Quinnipiac St., Bldg. 40, Wallingford CT 06492
  
  
 ---------------------------------------------------------------
 Warning -- This program may not be used in any manner that
 competes with the business of Gaussian, Inc. or will provide
 assistance to any competitor of Gaussian, Inc.  The licensee
 of this program is prohibited from giving any competitor of
 Gaussian, Inc. access to this program.  By using this program,
 the user acknowledges that Gaussian, Inc. is engaged in the
 business of creating and licensing software in the field of
 computational chemistry and represents and warrants to the
 licensee that it is not a competitor of Gaussian, Inc. and that
 it will not use this program in any manner prohibited above.
 ---------------------------------------------------------------
  

 Cite this work as:
 Gaussian 16, Revision C.01,
 M. J. Frisch, G. W. Trucks, H. B. Schlegel, G. E. Scuseria, 
 M. A. Robb, J. R. Cheeseman, G. Scalmani, V. Barone, 
 G. A. Petersson, H. Nakatsuji, X. Li, M. Caricato, A. V. Marenich, 
 J. Bloino, B. G. Janesko, R. Gomperts, B. Mennucci, H. P. Hratchian, 
 J. V. Ortiz, A. F. Izmaylov, J. L. Sonnenberg, D. Williams-Young, 
 F. Ding, F. Lipparini, F. Egidi, J. Goings, B. Peng, A. Petrone, 
 T. Henderson, D. Ranasinghe, V. G. Zakrzewski, J. Gao, N. Rega, 
 G. Zheng, W. Liang, M. Hada, M. Ehara, K. Toyota, R. Fukuda, 
 J. Hasegawa, M. Ishida, T. Nakajima, Y. Honda, O. Kitao, H. Nakai, 
 T. Vreven, K. Throssell, J. A. Montgomery, Jr., J. E. Peralta, 
 F. Ogliaro, M. J. Bearpark, J. J. Heyd, E. N. Brothers, K. N. Kudin, 
 V. N. Staroverov, T. A. Keith, R. Kobayashi, J. Normand, 
 K. Raghavachari, A. P. Rendell, J. C. Burant, S. S. Iyengar, 
 J. Tomasi, M. Cossi, J. M. Millam, M. Klene, C. Adamo, R. Cammi, 
 J. W. Ochterski, R. L. Martin, K. Morokuma, O. Farkas, 
 J. B. Foresman, and D. J. Fox, Gaussian, Inc., Wallingford CT, 2019.
 
 ******************************************
 Gaussian 16:  ES64L-G16RevC.01  3-Jul-2019
                 8-Feb-2023 
 ******************************************
 %nproc=4
 Will use up to    4 processors via shared memory.
 %mem=5760MB
 %chk=gaussian_33_water_ccsdt_adz.chk
 ----------------------------------------
 #P CCSD(T)/aug-cc-pVDZ scf(maxcycle=200)
 ----------------------------------------
 1/38=1,172=1/1;
 2/12=2,17=6,18=5,40=1/2;
 3/5=16,7=10,11=9,25=1,30=1/1,2,3;
 4//1;
 5/5=2,7=200,38=5/2;
 8/6=4,9=120000,10=1/1,4;
 9/5=7,14=2/13;
 6/7=2,8=2,9=2,10=2/1;
 99/5=1,9=1/99;
 Leave Link    1 at Wed Feb  8 14:47:30 2023, MaxMem=   754974720 cpu:               0.2 elap:               0.1
 (Enter /opt/cluster/programs/g16-c.01/g16/l101.exe)
 --------------
 Gaussian input
 --------------
 Symbolic Z-matrix:
 Charge =  0 Multiplicity = 1
 O                     0.        0.11751   0. 
 H                     0.71834  -0.43951   0. 
 H                    -0.81541  -0.38726   0. 
 
 ITRead=  0  0  0
 MicOpt= -1 -1 -1
 NAtoms=      3 NQM=        3 NQMF=       0 NMMI=      0 NMMIF=      0
                NMic=       0 NMicF=      0.
                    Isotopes and Nuclear Properties:
 (Nuclear quadrupole moments (NQMom) in fm**2, nuclear magnetic moments (NMagM)
  in nuclear magnetons)

  Atom         1           2           3
 IAtWgt=          16           1           1
 AtmWgt=  15.9949146   1.0078250   1.0078250
 NucSpn=           0           1           1
 AtZEff=  -0.0000000  -0.0000000  -0.0000000
 NQMom=    0.0000000   0.0000000   0.0000000
 NMagM=    0.0000000   2.7928460   2.7928460
 AtZNuc=   8.0000000   1.0000000   1.0000000
 Leave Link  101 at Wed Feb  8 14:47:30 2023, MaxMem=   754974720 cpu:               0.4 elap:               0.2
 (Enter /opt/cluster/programs/g16-c.01/g16/l202.exe)
                          Input orientation:                          
 ---------------------------------------------------------------------
 Center     Atomic      Atomic             Coordinates (Angstroms)
 Number     Number       Type             X           Y           Z
 ---------------------------------------------------------------------
      1          8           0        0.000000    0.117510    0.000000
      2          1           0        0.718337   -0.439511    0.000000
      3          1           0       -0.815410   -0.387256    0.000000
 ---------------------------------------------------------------------
                    Distance matrix (angstroms):
                    1          2          3
     1  O    0.000000
     2  H    0.909000   0.000000
     3  H    0.959000   1.534637   0.000000
 Stoichiometry    H2O
 Framework group  CS[SG(H2O)]
 Deg. of freedom     3
 Full point group                 CS      NOp   2
 Largest Abelian subgroup         CS      NOp   2
 Largest concise Abelian subgroup C1      NOp   1
                         Standard orientation:                         
 ---------------------------------------------------------------------
 Center     Atomic      Atomic             Coordinates (Angstroms)
 Number     Number       Type             X           Y           Z
 ---------------------------------------------------------------------
      1          8           0        0.000000    0.106621    0.000000
      2          1           0        0.766067   -0.382686    0.000000
      3          1           0       -0.766067   -0.470286    0.000000
 ---------------------------------------------------------------------
 Rotational constants (GHZ):         999.0595410         424.8101547         298.0684535
 Leave Link  202 at Wed Feb  8 14:47:30 2023, MaxMem=   754974720 cpu:               0.0 elap:               0.0
 (Enter /opt/cluster/programs/g16-c.01/g16/l301.exe)
 Standard basis: Aug-CC-pVDZ (5D, 7F)
 Ernie: Thresh=  0.10000D-02 Tol=  0.10000D-05 Strict=F.
 Ernie:  2 primitive shells out of 39 were deleted.
 There are    32 symmetry adapted cartesian basis functions of A'  symmetry.
 There are    11 symmetry adapted cartesian basis functions of A"  symmetry.
 There are    30 symmetry adapted basis functions of A'  symmetry.
 There are    11 symmetry adapted basis functions of A"  symmetry.
    41 basis functions,    65 primitive gaussians,    43 cartesian basis functions
     5 alpha electrons        5 beta electrons
       nuclear repulsion energy         9.4164560686 Hartrees.
 IExCor=    0 DFT=F Ex=HF Corr=None ExCW=0 ScaHFX=  1.000000
 ScaDFX=  1.000000  1.000000  1.000000  1.000000 ScalE2=  1.000000  1.000000
 IRadAn=      5 IRanWt=     -1 IRanGd=            0 ICorTp=0 IEmpDi=  4
 NAtoms=    3 NActive=    3 NUniq=    3 SFac= 1.00D+00 NAtFMM=   60 NAOKFM=F Big=F
 Integral buffers will be    131072 words long.
 Raffenetti 1 integral format.
 Two-electron integral symmetry is turned on.
 Leave Link  301 at Wed Feb  8 14:47:30 2023, MaxMem=   754974720 cpu:               0.1 elap:               0.0
 (Enter /opt/cluster/programs/g16-c.01/g16/l302.exe)
 NPDir=0 NMtPBC=     1 NCelOv=     1 NCel=       1 NClECP=     1 NCelD=      1
         NCelK=      1 NCelE2=     1 NClLst=     1 CellRange=     0.0.
 One-electron integrals computed using PRISM.
 One-electron integral symmetry used in STVInt
 NBasis=    41 RedAO= T EigKep=  2.58D-03  NBF=    30    11
 NBsUse=    41 1.00D-06 EigRej= -1.00D+00 NBFU=    30    11
 Leave Link  302 at Wed Feb  8 14:47:30 2023, MaxMem=   754974720 cpu:               0.4 elap:               0.1
 (Enter /opt/cluster/programs/g16-c.01/g16/l303.exe)
 DipDrv:  MaxL=1.
 Leave Link  303 at Wed Feb  8 14:47:30 2023, MaxMem=   754974720 cpu:               0.1 elap:               0.0
 (Enter /opt/cluster/programs/g16-c.01/g16/l401.exe)
 ExpMin= 2.97D-02 ExpMax= 1.17D+04 ExpMxC= 4.01D+02 IAcc=3 IRadAn=         5 AccDes= 0.00D+00
 Harris functional with IExCor=  205 and IRadAn=       5 diagonalized for initial guess.
 HarFok:  IExCor=  205 AccDes= 0.00D+00 IRadAn=         5 IDoV= 1 UseB2=F ITyADJ=14
 ICtDFT=  3500011 ScaDFX=  1.000000  1.000000  1.000000  1.000000
 FoFCou: FMM=F IPFlag=           0 FMFlag=      100000 FMFlg1=           0
         NFxFlg=           0 DoJE=T BraDBF=F KetDBF=T FulRan=T
         wScrn=  0.000000 ICntrl=       500 IOpCl=  0 I1Cent=   200000004 NGrid=           0
         NMat0=    1 NMatS0=      1 NMatT0=    0 NMatD0=    1 NMtDS0=    0 NMtDT0=    0
 Petite list used in FoFCou.
 Harris En= -76.1245066000642    
 JPrj=0 DoOrth=F DoCkMO=F.
 Initial guess orbital symmetries:
       Occupied  (A') (A') (A') (A') (A")
       Virtual   (A') (A') (A') (A") (A') (A') (A') (A') (A") (A')
                 (A") (A') (A') (A') (A') (A') (A") (A') (A") (A')
                 (A") (A') (A') (A') (A") (A") (A') (A') (A') (A')
                 (A') (A") (A') (A") (A') (A')
 The electronic state of the initial guess is 1-A'.
 Leave Link  401 at Wed Feb  8 14:47:30 2023, MaxMem=   754974720 cpu:               0.5 elap:               0.2
 (Enter /opt/cluster/programs/g16-c.01/g16/l502.exe)
 Keep R1 ints in memory in symmetry-blocked form, NReq=1210696.
 FoFCou: FMM=F IPFlag=           0 FMFlag=           0 FMFlg1=           0
         NFxFlg=           0 DoJE=F BraDBF=F KetDBF=F FulRan=T
         wScrn=  0.000000 ICntrl=       600 IOpCl=  0 I1Cent=           0 NGrid=           0
         NMat0=    1 NMatS0=    861 NMatT0=    0 NMatD0=    1 NMtDS0=    0 NMtDT0=    0
 Petite list used in FoFCou.
 Closed shell SCF:
 Using DIIS extrapolation, IDIIS=  1040.
 NGot=   754974720 LenX=   754771907 LenY=   754769617
 Requested convergence on RMS density matrix=1.00D-08 within 200 cycles.
 Requested convergence on MAX density matrix=1.00D-06.
 Requested convergence on             energy=1.00D-06.
 No special actions if energy rises.

 Cycle   1  Pass 1  IDiag  1:
 E= -75.9598757019315    
 DIIS: error= 5.24D-02 at cycle   1 NSaved=   1.
 NSaved= 1 IEnMin= 1 EnMin= -75.9598757019315     IErMin= 1 ErrMin= 5.24D-02
 ErrMax= 5.24D-02  0.00D+00 EMaxC= 1.00D-01 BMatC= 1.23D-01 BMatP= 1.23D-01
 IDIUse=3 WtCom= 4.76D-01 WtEn= 5.24D-01
 Coeff-Com:  0.100D+01
 Coeff-En:   0.100D+01
 Coeff:      0.100D+01
 Gap=     0.456 Goal=   None    Shift=    0.000
 GapD=    0.456 DampG=2.000 DampE=0.500 DampFc=1.0000 IDamp=-1.
 RMSDP=6.42D-03 MaxDP=1.21D-01              OVMax= 1.20D-01

 Cycle   2  Pass 1  IDiag  1:
 E= -76.0079037816004     Delta-E=       -0.048028079669 Rises=F Damp=F
 DIIS: error= 3.93D-02 at cycle   2 NSaved=   2.
 NSaved= 2 IEnMin= 2 EnMin= -76.0079037816004     IErMin= 2 ErrMin= 3.93D-02
 ErrMax= 3.93D-02  0.00D+00 EMaxC= 1.00D-01 BMatC= 4.55D-02 BMatP= 1.23D-01
 IDIUse=3 WtCom= 6.07D-01 WtEn= 3.93D-01
 Coeff-Com:  0.368D+00 0.632D+00
 Coeff-En:   0.190D+00 0.810D+00
 Coeff:      0.298D+00 0.702D+00
 Gap=     0.565 Goal=   None    Shift=    0.000
 RMSDP=2.93D-03 MaxDP=5.47D-02 DE=-4.80D-02 OVMax= 5.87D-02

 Cycle   3  Pass 1  IDiag  1:
 E= -76.0387587707207     Delta-E=       -0.030854989120 Rises=F Damp=F
 DIIS: error= 4.97D-03 at cycle   3 NSaved=   3.
 NSaved= 3 IEnMin= 3 EnMin= -76.0387587707207     IErMin= 3 ErrMin= 4.97D-03
 ErrMax= 4.97D-03  0.00D+00 EMaxC= 1.00D-01 BMatC= 1.21D-03 BMatP= 4.55D-02
 IDIUse=3 WtCom= 9.50D-01 WtEn= 4.97D-02
 Coeff-Com: -0.367D-01 0.964D-01 0.940D+00
 Coeff-En:   0.000D+00 0.000D+00 0.100D+01
 Coeff:     -0.349D-01 0.916D-01 0.943D+00
 Gap=     0.545 Goal=   None    Shift=    0.000
 RMSDP=4.79D-04 MaxDP=8.13D-03 DE=-3.09D-02 OVMax= 8.92D-03

 Cycle   4  Pass 1  IDiag  1:
 E= -76.0396518907317     Delta-E=       -0.000893120011 Rises=F Damp=F
 DIIS: error= 5.44D-04 at cycle   4 NSaved=   4.
 NSaved= 4 IEnMin= 4 EnMin= -76.0396518907317     IErMin= 4 ErrMin= 5.44D-04
 ErrMax= 5.44D-04  0.00D+00 EMaxC= 1.00D-01 BMatC= 6.32D-06 BMatP= 1.21D-03
 IDIUse=3 WtCom= 9.95D-01 WtEn= 5.44D-03
 Coeff-Com:  0.892D-02-0.438D-01-0.326D+00 0.136D+01
 Coeff-En:   0.000D+00 0.000D+00 0.000D+00 0.100D+01
 Coeff:      0.887D-02-0.436D-01-0.325D+00 0.136D+01
 Gap=     0.546 Goal=   None    Shift=    0.000
 RMSDP=1.06D-04 MaxDP=9.31D-04 DE=-8.93D-04 OVMax= 2.14D-03

 Cycle   5  Pass 1  IDiag  1:
 E= -76.0396670151399     Delta-E=       -0.000015124408 Rises=F Damp=F
 DIIS: error= 1.43D-04 at cycle   5 NSaved=   5.
 NSaved= 5 IEnMin= 5 EnMin= -76.0396670151399     IErMin= 5 ErrMin= 1.43D-04
 ErrMax= 1.43D-04  0.00D+00 EMaxC= 1.00D-01 BMatC= 2.47D-07 BMatP= 6.32D-06
 IDIUse=3 WtCom= 9.99D-01 WtEn= 1.43D-03
 Coeff-Com: -0.511D-03 0.511D-02 0.359D-01-0.313D+00 0.127D+01
 Coeff-En:   0.000D+00 0.000D+00 0.000D+00 0.000D+00 0.100D+01
 Coeff:     -0.511D-03 0.510D-02 0.359D-01-0.312D+00 0.127D+01
 Gap=     0.546 Goal=   None    Shift=    0.000
 RMSDP=2.40D-05 MaxDP=3.17D-04 DE=-1.51D-05 OVMax= 5.30D-04

 Cycle   6  Pass 1  IDiag  1:
 E= -76.0396677556709     Delta-E=       -0.000000740531 Rises=F Damp=F
 DIIS: error= 2.57D-05 at cycle   6 NSaved=   6.
 NSaved= 6 IEnMin= 6 EnMin= -76.0396677556709     IErMin= 6 ErrMin= 2.57D-05
 ErrMax= 2.57D-05  0.00D+00 EMaxC= 1.00D-01 BMatC= 8.75D-09 BMatP= 2.47D-07
 IDIUse=1 WtCom= 1.00D+00 WtEn= 0.00D+00
 Coeff-Com: -0.293D-03 0.115D-02 0.859D-02-0.149D-01-0.201D+00 0.121D+01
 Coeff:     -0.293D-03 0.115D-02 0.859D-02-0.149D-01-0.201D+00 0.121D+01
 Gap=     0.546 Goal=   None    Shift=    0.000
 RMSDP=3.86D-06 MaxDP=7.10D-05 DE=-7.41D-07 OVMax= 1.05D-04

 Cycle   7  Pass 1  IDiag  1:
 E= -76.0396677827296     Delta-E=       -0.000000027059 Rises=F Damp=F
 DIIS: error= 5.98D-06 at cycle   7 NSaved=   7.
 NSaved= 7 IEnMin= 7 EnMin= -76.0396677827296     IErMin= 7 ErrMin= 5.98D-06
 ErrMax= 5.98D-06  0.00D+00 EMaxC= 1.00D-01 BMatC= 4.97D-10 BMatP= 8.75D-09
 IDIUse=1 WtCom= 1.00D+00 WtEn= 0.00D+00
 Coeff-Com:  0.126D-03-0.668D-03-0.507D-02 0.240D-01-0.667D-02-0.363D+00
 Coeff-Com:  0.135D+01
 Coeff:      0.126D-03-0.668D-03-0.507D-02 0.240D-01-0.667D-02-0.363D+00
 Coeff:      0.135D+01
 Gap=     0.546 Goal=   None    Shift=    0.000
 RMSDP=8.33D-07 MaxDP=1.64D-05 DE=-2.71D-08 OVMax= 2.41D-05

 Cycle   8  Pass 1  IDiag  1:
 E= -76.0396677840363     Delta-E=       -0.000000001307 Rises=F Damp=F
 DIIS: error= 6.83D-07 at cycle   8 NSaved=   8.
 NSaved= 8 IEnMin= 8 EnMin= -76.0396677840363     IErMin= 8 ErrMin= 6.83D-07
 ErrMax= 6.83D-07  0.00D+00 EMaxC= 1.00D-01 BMatC= 1.31D-11 BMatP= 4.97D-10
 IDIUse=1 WtCom= 1.00D+00 WtEn= 0.00D+00
 Coeff-Com: -0.180D-04 0.109D-03 0.873D-03-0.528D-02 0.899D-02 0.481D-01
 Coeff-Com: -0.345D+00 0.129D+01
 Coeff:     -0.180D-04 0.109D-03 0.873D-03-0.528D-02 0.899D-02 0.481D-01
 Coeff:     -0.345D+00 0.129D+01
 Gap=     0.546 Goal=   None    Shift=    0.000
 RMSDP=1.72D-07 MaxDP=2.39D-06 DE=-1.31D-09 OVMax= 3.42D-06

 Cycle   9  Pass 1  IDiag  1:
 E= -76.0396677840686     Delta-E=       -0.000000000032 Rises=F Damp=F
 DIIS: error= 8.46D-08 at cycle   9 NSaved=   9.
 NSaved= 9 IEnMin= 9 EnMin= -76.0396677840686     IErMin= 9 ErrMin= 8.46D-08
 ErrMax= 8.46D-08  0.00D+00 EMaxC= 1.00D-01 BMatC= 2.05D-13 BMatP= 1.31D-11
 IDIUse=1 WtCom= 1.00D+00 WtEn= 0.00D+00
 Coeff-Com: -0.259D-05 0.131D-04 0.926D-04-0.327D-03-0.488D-03 0.689D-02
 Coeff-Com: -0.116D-01-0.882D-01 0.109D+01
 Coeff:     -0.259D-05 0.131D-04 0.926D-04-0.327D-03-0.488D-03 0.689D-02
 Coeff:     -0.116D-01-0.882D-01 0.109D+01
 Gap=     0.546 Goal=   None    Shift=    0.000
 RMSDP=2.29D-08 MaxDP=2.56D-07 DE=-3.23D-11 OVMax= 3.39D-07

 Cycle  10  Pass 1  IDiag  1:
 E= -76.0396677840688     Delta-E=       -0.000000000000 Rises=F Damp=F
 DIIS: error= 2.28D-08 at cycle  10 NSaved=  10.
 NSaved=10 IEnMin=10 EnMin= -76.0396677840688     IErMin=10 ErrMin= 2.28D-08
 ErrMax= 2.28D-08  0.00D+00 EMaxC= 1.00D-01 BMatC= 1.16D-14 BMatP= 2.05D-13
 IDIUse=1 WtCom= 1.00D+00 WtEn= 0.00D+00
 Coeff-Com:  0.100D-05-0.564D-05-0.426D-04 0.218D-03-0.139D-03-0.288D-02
 Coeff-Com:  0.135D-01-0.258D-01-0.248D+00 0.126D+01
 Coeff:      0.100D-05-0.564D-05-0.426D-04 0.218D-03-0.139D-03-0.288D-02
 Coeff:      0.135D-01-0.258D-01-0.248D+00 0.126D+01
 Gap=     0.546 Goal=   None    Shift=    0.000
 RMSDP=5.60D-09 MaxDP=5.75D-08 DE=-1.85D-13 OVMax= 8.13D-08

 SCF Done:  E(RHF) =  -76.0396677841     A.U. after   10 cycles
            NFock= 10  Conv=0.56D-08     -V/T= 2.0003
 KE= 7.602050839688D+01 PE=-1.993969979045D+02 EE= 3.792036565494D+01
 Leave Link  502 at Wed Feb  8 14:47:31 2023, MaxMem=   754974720 cpu:               2.0 elap:               0.9
 (Enter /opt/cluster/programs/g16-c.01/g16/l801.exe)
 Windowed orbitals will be sorted by symmetry type.
 ExpMin= 2.97D-02 ExpMax= 1.17D+04 ExpMxC= 4.01D+02 IAcc=3 IRadAn=         5 AccDes= 0.00D+00
 HarFok:  IExCor=  205 AccDes= 0.00D+00 IRadAn=         5 IDoV=-2 UseB2=F ITyADJ=14
 ICtDFT= 12500011 ScaDFX=  1.000000  1.000000  1.000000  1.000000
 Largest valence mixing into a core orbital is  6.01D-05
 Largest core mixing into a valence orbital is  1.71D-05
 Range of M.O.s used for correlation:     2    41
 NBasis=    41 NAE=     5 NBE=     5 NFC=     1 NFV=     0
 NROrb=     40 NOA=     4 NOB=     4 NVA=    36 NVB=    36
 Leave Link  801 at Wed Feb  8 14:47:31 2023, MaxMem=   754974720 cpu:               0.2 elap:               0.1
 (Enter /opt/cluster/programs/g16-c.01/g16/l804.exe)
 Closed-shell transformation, MDV=   754974720 ITran=4 ISComp=2.
 Unit  1 TFree=         57024 TCopy=        242858.
 Semi-Direct transformation.
 ModeAB=           2 MOrb=             4 LenV=     754769647
 LASXX=        60334 LTotXX=       60334 LenRXX=       60334
 LTotAB=       65632 MaxLAS=      151360 LenRXY=      151360
 NonZer=      159520 LenScr=      785920 LnRSAI=           0
 LnScr1=           0 LExtra=           0 Total=       997614
 MaxDsk=          -1 SrtSym=           F ITran=            4
 DoSDTr:  NPSUse=  4
 JobTyp=0 Pass  1:  I=   1 to   4.
 (rs|ai) integrals will be sorted in core.
 Complete sort for first half transformation.
 First half transformation complete.
 Complete sort for second half transformation.
 Second half transformation complete.
 Spin components of T(2) and E(2):
     alpha-alpha T2 =       0.7506038744D-02 E2=     -0.2764690673D-01
     alpha-beta  T2 =       0.4229158200D-01 E2=     -0.1617551714D+00
     beta-beta   T2 =       0.7506038744D-02 E2=     -0.2764690673D-01
 ANorm=    0.1028252722D+01
 E2 =    -0.2170489849D+00 EUMP2 =    -0.76256716768967D+02
 Leave Link  804 at Wed Feb  8 14:47:31 2023, MaxMem=   754974720 cpu:               0.3 elap:               0.1
 (Enter /opt/cluster/programs/g16-c.01/g16/l913.exe)
 CIDS:  MDV=   754974720.
 Frozen-core window:  NFC=   1 NFV=   0.
 IFCWin=0 IBDFC=1 NFBD=     0     0 NFCmp=     0     0 NFFFC=     0     0
 Using DD3R+UMP44R for 1st iteration.
 Using DD4RQ for 2nd and later iterations.
 Keep R2 and R3 ints in memory in symmetry-blocked form, NReq=1234065.
 FoFCou: FMM=F IPFlag=           0 FMFlag=           0 FMFlg1=           0
         NFxFlg=           0 DoJE=F BraDBF=F KetDBF=F FulRan=T
         wScrn=  0.000000 ICntrl=       600 IOpCl=  0 I1Cent=           0 NGrid=           0
         NMat0=    1 NMatS0=    861 NMatT0=    0 NMatD0=    1 NMtDS0=    0 NMtDT0=    0
 Petite list used in FoFCou.
 CIDS: In Core Option IDoMem=           1.
 CCSD(T)
 =======
 Iterations=  50 Convergence= 0.100D-06
 Produce multiple copies of IABC intergrals
 Iteration Nr.   1
 **********************
 DD1Dir will call FoFMem   1 times, MxPair=        20
 NAB=    10 NAA=     0 NBB=     0.
 MP4(R+Q)=  0.24092795D-02
 Maximum subspace dimension=  5
 A-vector RMS=  5.2257250D-03 Max=  1.6379890D-02 conv= 1.00D-05.
 RLE energy=       -0.2197448829
 E3=       -0.51606647D-02        EUMP3=      -0.76261877434D+02
 E4(DQ)=   -0.13397545D-02        UMP4(DQ)=   -0.76263217188D+02
 E4(SDQ)=  -0.29576295D-02        UMP4(SDQ)=  -0.76264835063D+02
 VARIATIONAL ENERGIES WITH THE FIRST-ORDER WAVEFUNCTION:
 DE(Corr)= -0.21971185     E(Corr)=     -76.259379629    
 NORM(A)=   0.10293309D+01
 Iteration Nr.   2
 **********************
 DD1Dir will call FoFMem   1 times, MxPair=        20
 NAB=    10 NAA=     0 NBB=     0.
 A-vector RMS=  6.0851438D-04 Max=  2.8975381D-03 conv= 1.00D-05.
 RLE energy=       -0.2245934612
 DE(Corr)= -0.22402082     E(CORR)=     -76.263688607     Delta=-4.31D-03
 NORM(A)=   0.10313545D+01
 Iteration Nr.   3
 **********************
 DD1Dir will call FoFMem   1 times, MxPair=        20
 NAB=    10 NAA=     0 NBB=     0.
 A-vector RMS=  7.0774390D-04 Max=  2.7299418D-03 conv= 1.00D-05.
 RLE energy=       -0.2249370635
 DE(Corr)= -0.22455168     E(CORR)=     -76.264219464     Delta=-5.31D-04
 NORM(A)=   0.10318212D+01
 Iteration Nr.   4
 **********************
 DD1Dir will call FoFMem   1 times, MxPair=        20
 NAB=    10 NAA=     0 NBB=     0.
 A-vector RMS=  8.6074607D-05 Max=  3.5076868D-04 conv= 1.00D-05.
 RLE energy=       -0.2249701514
 DE(Corr)= -0.22494333     E(CORR)=     -76.264611118     Delta=-3.92D-04
 NORM(A)=   0.10319236D+01
 Iteration Nr.   5
 **********************
 DD1Dir will call FoFMem   1 times, MxPair=        20
 NAB=    10 NAA=     0 NBB=     0.
 A-vector RMS=  3.6227171D-05 Max=  1.5778687D-04 conv= 1.00D-05.
 RLE energy=       -0.2249747199
 DE(Corr)= -0.22497164     E(CORR)=     -76.264639419     Delta=-2.83D-05
 NORM(A)=   0.10319400D+01
 Iteration Nr.   6
 **********************
 DD1Dir will call FoFMem   1 times, MxPair=        20
 NAB=    10 NAA=     0 NBB=     0.
 A-vector RMS=  9.7540142D-06 Max=  3.9671948D-05 conv= 1.00D-05.
 RLE energy=       -0.2249722993
 DE(Corr)= -0.22497341     E(CORR)=     -76.264641197     Delta=-1.78D-06
 NORM(A)=   0.10319417D+01
 Iteration Nr.   7
 **********************
 DD1Dir will call FoFMem   1 times, MxPair=        20
 NAB=    10 NAA=     0 NBB=     0.
 A-vector RMS=  3.5576626D-06 Max=  1.1705120D-05 conv= 1.00D-05.
 RLE energy=       -0.2249728255
 DE(Corr)= -0.22497340     E(CORR)=     -76.264641183     Delta= 1.37D-08
 NORM(A)=   0.10319423D+01
 Iteration Nr.   8
 **********************
 DD1Dir will call FoFMem   1 times, MxPair=        20
 NAB=    10 NAA=     0 NBB=     0.
 A-vector RMS=  1.1593365D-06 Max=  4.7947209D-06 conv= 1.00D-05.
 RLE energy=       -0.2249730412
 DE(Corr)= -0.22497311     E(CORR)=     -76.264640895     Delta= 2.88D-07
 NORM(A)=   0.10319427D+01
 Iteration Nr.   9
 **********************
 DD1Dir will call FoFMem   1 times, MxPair=        20
 NAB=    10 NAA=     0 NBB=     0.
 A-vector RMS=  3.0494576D-07 Max=  1.0874100D-06 conv= 1.00D-05.
 RLE energy=       -0.2249732259
 DE(Corr)= -0.22497323     E(CORR)=     -76.264641019     Delta=-1.24D-07
 NORM(A)=   0.10319428D+01
 Iteration Nr.  10
 **********************
 DD1Dir will call FoFMem   1 times, MxPair=        20
 NAB=    10 NAA=     0 NBB=     0.
 A-vector RMS=  1.4202243D-07 Max=  4.7703375D-07 conv= 1.00D-05.
 RLE energy=       -0.2249732644
 DE(Corr)= -0.22497325     E(CORR)=     -76.264641031     Delta=-1.22D-08
 NORM(A)=   0.10319429D+01
 CI/CC converged in   10 iterations to DelEn=-1.22D-08 Conv= 1.00D-07 ErrA1= 1.42D-07 Conv= 1.00D-05
 Wavefunction amplitudes converged. E(Corr)=     -76.264641031    
 Largest amplitude= 3.40D-02
 IPart=  3 IA=    3   10.95% done.
 IPart=  2 IA=    5   21.27% done.
 IPart=  4 IA=    7   30.95% done.
 IPart=  2 IA=    9   40.00% done.
 IPart=  1 IA=   12   52.38% done.
 IPart=  4 IA=   15   63.33% done.
 IPart=  4 IA=   18   72.86% done.
 IPart=  3 IA=   21   80.95% done.
 IPart=  4 IA=   26   91.27% done.
 Time for triples=        0.42 seconds.
 T4(CCSD)= -0.53985544D-02
 T5(CCSD)=  0.38218541D-03
 CCSD(T)= -0.76269657400D+02
 Discarding MO integrals.
 Leave Link  913 at Wed Feb  8 14:47:32 2023, MaxMem=   754974720 cpu:               1.3 elap:               0.3
 (Enter /opt/cluster/programs/g16-c.01/g16/l601.exe)
 Copying SCF densities to generalized density rwf, IOpCl= 0 IROHF=0.

 **********************************************************************

            Population analysis using the SCF Density.

 **********************************************************************

 Orbital symmetries:
       Occupied  (A') (A') (A') (A') (A")
       Virtual   (A') (A') (A') (A") (A') (A') (A') (A') (A") (A')
                 (A") (A') (A') (A') (A') (A') (A") (A') (A") (A')
                 (A') (A") (A') (A') (A") (A") (A') (A') (A') (A')
                 (A') (A") (A') (A") (A') (A')
 The electronic state is 1-A'.
 Alpha  occ. eigenvalues --  -20.57044  -1.36531  -0.74413  -0.57815  -0.50984
 Alpha virt. eigenvalues --    0.03626   0.05753   0.17400   0.19472   0.22301
 Alpha virt. eigenvalues --    0.22891   0.29996   0.32692   0.38412   0.41955
 Alpha virt. eigenvalues --    0.44673   0.53676   0.65143   0.66115   0.83980
 Alpha virt. eigenvalues --    0.91955   1.09137   1.10325   1.15100   1.35231
 Alpha virt. eigenvalues --    1.47933   1.49752   1.59043   2.00825   2.04069
 Alpha virt. eigenvalues --    2.11003   2.43690   2.50152   2.66834   2.76119
 Alpha virt. eigenvalues --    2.92536   3.66824   3.68647   3.71233   4.10312
 Alpha virt. eigenvalues --    4.34929
          Condensed to atoms (all electrons):
               1          2          3
     1  O    7.557916   0.357077   0.343334
     2  H    0.357077   0.594355  -0.051162
     3  H    0.343334  -0.051162   0.549230
 Mulliken charges:
               1
     1  O   -0.258327
     2  H    0.099730
     3  H    0.158597
 Sum of Mulliken charges =  -0.00000
 Mulliken charges with hydrogens summed into heavy atoms:
               1
     1  O   -0.000000
 Electronic spatial extent (au):  <R**2>=             19.2491
 Charge=             -0.0000 electrons
 Dipole moment (field-independent basis, Debye):
    X=              0.0199    Y=             -1.8824    Z=              0.0000  Tot=              1.8825
 Quadrupole moment (field-independent basis, Debye-Ang):
   XX=             -4.0926   YY=             -6.4140   ZZ=             -7.5439
   XY=              0.1597   XZ=              0.0000   YZ=              0.0000
 Traceless Quadrupole moment (field-independent basis, Debye-Ang):
   XX=              1.9242   YY=             -0.3972   ZZ=             -1.5271
   XY=              0.1597   XZ=              0.0000   YZ=              0.0000
 Octapole moment (field-independent basis, Debye-Ang**2):
  XXX=              0.0619  YYY=             -1.1237  ZZZ=              0.0000  XYY=             -0.0946
  XXY=             -1.3223  XXZ=              0.0000  XZZ=              0.0310  YZZ=             -0.2965
  YYZ=              0.0000  XYZ=              0.0000
 Hexadecapole moment (field-independent basis, Debye-Ang**3):
 XXXX=             -5.6698 YYYY=             -7.1500 ZZZZ=             -6.7797 XXXY=              0.0248
 XXXZ=              0.0000 YYYX=             -0.0018 YYYZ=              0.0000 ZZZX=              0.0000
 ZZZY=              0.0000 XXYY=             -1.9247 XXZZ=             -2.4162 YYZZ=             -2.3595
 XXYZ=              0.0000 YYXZ=              0.0000 ZZXY=             -0.0331
 N-N= 9.416456068620D+00 E-N=-1.993969977031D+02  KE= 7.602050839688D+01
 Symmetry A'   KE= 7.158326244298D+01
 Symmetry A"   KE= 4.437245953898D+00
 Leave Link  601 at Wed Feb  8 14:47:32 2023, MaxMem=   754974720 cpu:               0.3 elap:               0.1
 (Enter /opt/cluster/programs/g16-c.01/g16/l9999.exe)
 Unable to Open any file for archive entry.
 1\1\GINC-NODE66\SP\RCCSD(T)-FC\Aug-CC-pVDZ\H2O1\BOITTIER\08-Feb-2023\0
 \\#P CCSD(T)/aug-cc-pVDZ scf(maxcycle=200)\\Gaussian input\\0,1\O,0,0.
 ,0.11751,0.\H,0,0.7183372325,-0.4395112028,0.\H,0,-0.8154095736,-0.387
 2555171,0.\\Version=ES64L-G16RevC.01\State=1-A'\HF=-76.0396678\MP2=-76
 .2567168\MP3=-76.2618774\MP4D=-76.2656265\MP4DQ=-76.2632172\MP4SDQ=-76
 .2648351\CCSD=-76.264641\CCSD(T)=-76.2696574\RMSD=5.601e-09\PG=CS [SG(
 H2O1)]\\@
 The archive entry for this job was punched.


 IF GOD HAD MEANT MAN TO SEE THE SUN RISE, HE
 WOULD HAVE SCHEDULED IT FOR A LATER HOUR.
 Job cpu time:       0 days  0 hours  0 minutes  6.1 seconds.
 Elapsed time:       0 days  0 hours  0 minutes  2.1 seconds.
 File lengths (MBytes):  RWF=     15 Int=      0 D2E=      0 Chk=      1 Scr=      1
 Normal termination of Gaussian 16 at Wed Feb  8 14:47:33 2023.
