 Entering Gaussian System, Link 0=/opt/cluster/programs/g16-c.01/g16/g16
 Input=/scratch/boittier/jobs/tmp.7262276/gaussian_117_water_ccsdt_adz.com
 Output=/scratch/boittier/jobs/tmp.7262276/gaussian_117_water_ccsdt_adz.out
 Initial command:
 /opt/cluster/programs/g16-c.01/g16/l1.exe "/scratch/boittier/jobs/tmp.7262276/Gau-54095.inp" -scrdir="/scratch/boittier/jobs/tmp.7262276/"
 Entering Link 1 = /opt/cluster/programs/g16-c.01/g16/l1.exe PID=     54096.
  
 Copyright (c) 1988-2019, Gaussian, Inc.  All Rights Reserved.
  
 This is part of the Gaussian(R) 16 program.  It is based on
 the Gaussian(R) 09 system (copyright 2009, Gaussian, Inc.),
 the Gaussian(R) 03 system (copyright 2003, Gaussian, Inc.),
 the Gaussian(R) 98 system (copyright 1998, Gaussian, Inc.),
 the Gaussian(R) 94 system (copyright 1995, Gaussian, Inc.),
 the Gaussian 92(TM) system (copyright 1992, Gaussian, Inc.),
 the Gaussian 90(TM) system (copyright 1990, Gaussian, Inc.),
 the Gaussian 88(TM) system (copyright 1988, Gaussian, Inc.),
 the Gaussian 86(TM) system (copyright 1986, Carnegie Mellon
 University), and the Gaussian 82(TM) system (copyright 1983,
 Carnegie Mellon University). Gaussian is a federally registered
 trademark of Gaussian, Inc.
  
 This software contains proprietary and confidential information,
 including trade secrets, belonging to Gaussian, Inc.
  
 This software is provided under written license and may be
 used, copied, transmitted, or stored only in accord with that
 written license.
  
 The following legend is applicable only to US Government
 contracts under FAR:
  
                    RESTRICTED RIGHTS LEGEND
  
 Use, reproduction and disclosure by the US Government is
 subject to restrictions as set forth in subparagraphs (a)
 and (c) of the Commercial Computer Software - Restricted
 Rights clause in FAR 52.227-19.
  
 Gaussian, Inc.
 340 Quinnipiac St., Bldg. 40, Wallingford CT 06492
  
  
 ---------------------------------------------------------------
 Warning -- This program may not be used in any manner that
 competes with the business of Gaussian, Inc. or will provide
 assistance to any competitor of Gaussian, Inc.  The licensee
 of this program is prohibited from giving any competitor of
 Gaussian, Inc. access to this program.  By using this program,
 the user acknowledges that Gaussian, Inc. is engaged in the
 business of creating and licensing software in the field of
 computational chemistry and represents and warrants to the
 licensee that it is not a competitor of Gaussian, Inc. and that
 it will not use this program in any manner prohibited above.
 ---------------------------------------------------------------
  

 Cite this work as:
 Gaussian 16, Revision C.01,
 M. J. Frisch, G. W. Trucks, H. B. Schlegel, G. E. Scuseria, 
 M. A. Robb, J. R. Cheeseman, G. Scalmani, V. Barone, 
 G. A. Petersson, H. Nakatsuji, X. Li, M. Caricato, A. V. Marenich, 
 J. Bloino, B. G. Janesko, R. Gomperts, B. Mennucci, H. P. Hratchian, 
 J. V. Ortiz, A. F. Izmaylov, J. L. Sonnenberg, D. Williams-Young, 
 F. Ding, F. Lipparini, F. Egidi, J. Goings, B. Peng, A. Petrone, 
 T. Henderson, D. Ranasinghe, V. G. Zakrzewski, J. Gao, N. Rega, 
 G. Zheng, W. Liang, M. Hada, M. Ehara, K. Toyota, R. Fukuda, 
 J. Hasegawa, M. Ishida, T. Nakajima, Y. Honda, O. Kitao, H. Nakai, 
 T. Vreven, K. Throssell, J. A. Montgomery, Jr., J. E. Peralta, 
 F. Ogliaro, M. J. Bearpark, J. J. Heyd, E. N. Brothers, K. N. Kudin, 
 V. N. Staroverov, T. A. Keith, R. Kobayashi, J. Normand, 
 K. Raghavachari, A. P. Rendell, J. C. Burant, S. S. Iyengar, 
 J. Tomasi, M. Cossi, J. M. Millam, M. Klene, C. Adamo, R. Cammi, 
 J. W. Ochterski, R. L. Martin, K. Morokuma, O. Farkas, 
 J. B. Foresman, and D. J. Fox, Gaussian, Inc., Wallingford CT, 2019.
 
 ******************************************
 Gaussian 16:  ES64L-G16RevC.01  3-Jul-2019
                 8-Feb-2023 
 ******************************************
 %nproc=4
 Will use up to    4 processors via shared memory.
 %mem=5760MB
 %chk=gaussian_117_water_ccsdt_adz.chk
 ----------------------------------------
 #P CCSD(T)/aug-cc-pVDZ scf(maxcycle=200)
 ----------------------------------------
 1/38=1,172=1/1;
 2/12=2,17=6,18=5,40=1/2;
 3/5=16,7=10,11=9,25=1,30=1/1,2,3;
 4//1;
 5/5=2,7=200,38=5/2;
 8/6=4,9=120000,10=1/1,4;
 9/5=7,14=2/13;
 6/7=2,8=2,9=2,10=2/1;
 99/5=1,9=1/99;
 Leave Link    1 at Wed Feb  8 14:49:56 2023, MaxMem=   754974720 cpu:               0.1 elap:               0.0
 (Enter /opt/cluster/programs/g16-c.01/g16/l101.exe)
 --------------
 Gaussian input
 --------------
 Symbolic Z-matrix:
 Charge =  0 Multiplicity = 1
 O                     0.        0.11751   0. 
 H                     0.75785  -0.47015   0. 
 H                    -0.92349  -0.289     0. 
 
 ITRead=  0  0  0
 MicOpt= -1 -1 -1
 NAtoms=      3 NQM=        3 NQMF=       0 NMMI=      0 NMMIF=      0
                NMic=       0 NMicF=      0.
                    Isotopes and Nuclear Properties:
 (Nuclear quadrupole moments (NQMom) in fm**2, nuclear magnetic moments (NMagM)
  in nuclear magnetons)

  Atom         1           2           3
 IAtWgt=          16           1           1
 AtmWgt=  15.9949146   1.0078250   1.0078250
 NucSpn=           0           1           1
 AtZEff=  -0.0000000  -0.0000000  -0.0000000
 NQMom=    0.0000000   0.0000000   0.0000000
 NMagM=    0.0000000   2.7928460   2.7928460
 AtZNuc=   8.0000000   1.0000000   1.0000000
 Leave Link  101 at Wed Feb  8 14:49:56 2023, MaxMem=   754974720 cpu:               0.7 elap:               0.2
 (Enter /opt/cluster/programs/g16-c.01/g16/l202.exe)
                          Input orientation:                          
 ---------------------------------------------------------------------
 Center     Atomic      Atomic             Coordinates (Angstroms)
 Number     Number       Type             X           Y           Z
 ---------------------------------------------------------------------
      1          8           0        0.000000    0.117510    0.000000
      2          1           0        0.757850   -0.470150    0.000000
      3          1           0       -0.923486   -0.289005    0.000000
 ---------------------------------------------------------------------
                    Distance matrix (angstroms):
                    1          2          3
     1  O    0.000000
     2  H    0.959000   0.000000
     3  H    1.009000   1.691066   0.000000
 Stoichiometry    H2O
 Framework group  CS[SG(H2O)]
 Deg. of freedom     3
 Full point group                 CS      NOp   2
 Largest Abelian subgroup         CS      NOp   2
 Largest concise Abelian subgroup C1      NOp   1
                         Standard orientation:                         
 ---------------------------------------------------------------------
 Center     Atomic      Atomic             Coordinates (Angstroms)
 Number     Number       Type             X           Y           Z
 ---------------------------------------------------------------------
      1          8           0        0.000000    0.100788    0.000000
      2          1           0        0.844123   -0.354336    0.000000
      3          1           0       -0.844123   -0.451967    0.000000
 ---------------------------------------------------------------------
 Rotational constants (GHZ):        1117.1360558         350.1674433         266.6010657
 Leave Link  202 at Wed Feb  8 14:49:56 2023, MaxMem=   754974720 cpu:               0.1 elap:               0.0
 (Enter /opt/cluster/programs/g16-c.01/g16/l301.exe)
 Standard basis: Aug-CC-pVDZ (5D, 7F)
 Ernie: Thresh=  0.10000D-02 Tol=  0.10000D-05 Strict=F.
 Ernie:  2 primitive shells out of 39 were deleted.
 There are    32 symmetry adapted cartesian basis functions of A'  symmetry.
 There are    11 symmetry adapted cartesian basis functions of A"  symmetry.
 There are    30 symmetry adapted basis functions of A'  symmetry.
 There are    11 symmetry adapted basis functions of A"  symmetry.
    41 basis functions,    65 primitive gaussians,    43 cartesian basis functions
     5 alpha electrons        5 beta electrons
       nuclear repulsion energy         8.9229904101 Hartrees.
 IExCor=    0 DFT=F Ex=HF Corr=None ExCW=0 ScaHFX=  1.000000
 ScaDFX=  1.000000  1.000000  1.000000  1.000000 ScalE2=  1.000000  1.000000
 IRadAn=      5 IRanWt=     -1 IRanGd=            0 ICorTp=0 IEmpDi=  4
 NAtoms=    3 NActive=    3 NUniq=    3 SFac= 1.00D+00 NAtFMM=   60 NAOKFM=F Big=F
 Integral buffers will be    131072 words long.
 Raffenetti 1 integral format.
 Two-electron integral symmetry is turned on.
 Leave Link  301 at Wed Feb  8 14:49:56 2023, MaxMem=   754974720 cpu:               0.1 elap:               0.0
 (Enter /opt/cluster/programs/g16-c.01/g16/l302.exe)
 NPDir=0 NMtPBC=     1 NCelOv=     1 NCel=       1 NClECP=     1 NCelD=      1
         NCelK=      1 NCelE2=     1 NClLst=     1 CellRange=     0.0.
 One-electron integrals computed using PRISM.
 One-electron integral symmetry used in STVInt
 NBasis=    41 RedAO= T EigKep=  3.04D-03  NBF=    30    11
 NBsUse=    41 1.00D-06 EigRej= -1.00D+00 NBFU=    30    11
 Leave Link  302 at Wed Feb  8 14:49:57 2023, MaxMem=   754974720 cpu:               0.4 elap:               0.1
 (Enter /opt/cluster/programs/g16-c.01/g16/l303.exe)
 DipDrv:  MaxL=1.
 Leave Link  303 at Wed Feb  8 14:49:57 2023, MaxMem=   754974720 cpu:               0.2 elap:               0.1
 (Enter /opt/cluster/programs/g16-c.01/g16/l401.exe)
 ExpMin= 2.97D-02 ExpMax= 1.17D+04 ExpMxC= 4.01D+02 IAcc=3 IRadAn=         5 AccDes= 0.00D+00
 Harris functional with IExCor=  205 and IRadAn=       5 diagonalized for initial guess.
 HarFok:  IExCor=  205 AccDes= 0.00D+00 IRadAn=         5 IDoV= 1 UseB2=F ITyADJ=14
 ICtDFT=  3500011 ScaDFX=  1.000000  1.000000  1.000000  1.000000
 FoFCou: FMM=F IPFlag=           0 FMFlag=      100000 FMFlg1=           0
         NFxFlg=           0 DoJE=T BraDBF=F KetDBF=T FulRan=T
         wScrn=  0.000000 ICntrl=       500 IOpCl=  0 I1Cent=   200000004 NGrid=           0
         NMat0=    1 NMatS0=      1 NMatT0=    0 NMatD0=    1 NMtDS0=    0 NMtDT0=    0
 Petite list used in FoFCou.
 Harris En= -76.1200871274524    
 JPrj=0 DoOrth=F DoCkMO=F.
 Initial guess orbital symmetries:
       Occupied  (A') (A') (A') (A') (A")
       Virtual   (A') (A') (A') (A") (A') (A') (A') (A') (A") (A')
                 (A") (A') (A') (A') (A') (A') (A") (A') (A") (A')
                 (A") (A') (A') (A') (A") (A") (A') (A') (A') (A')
                 (A') (A") (A') (A") (A') (A')
 The electronic state of the initial guess is 1-A'.
 Leave Link  401 at Wed Feb  8 14:49:57 2023, MaxMem=   754974720 cpu:               0.7 elap:               0.2
 (Enter /opt/cluster/programs/g16-c.01/g16/l502.exe)
 Keep R1 ints in memory in symmetry-blocked form, NReq=1210668.
 FoFCou: FMM=F IPFlag=           0 FMFlag=           0 FMFlg1=           0
         NFxFlg=           0 DoJE=F BraDBF=F KetDBF=F FulRan=T
         wScrn=  0.000000 ICntrl=       600 IOpCl=  0 I1Cent=           0 NGrid=           0
         NMat0=    1 NMatS0=    861 NMatT0=    0 NMatD0=    1 NMtDS0=    0 NMtDT0=    0
 Petite list used in FoFCou.
 Closed shell SCF:
 Using DIIS extrapolation, IDIIS=  1040.
 NGot=   754974720 LenX=   754771907 LenY=   754769617
 Requested convergence on RMS density matrix=1.00D-08 within 200 cycles.
 Requested convergence on MAX density matrix=1.00D-06.
 Requested convergence on             energy=1.00D-06.
 No special actions if energy rises.

 Cycle   1  Pass 1  IDiag  1:
 E= -75.9570755848094    
 DIIS: error= 5.07D-02 at cycle   1 NSaved=   1.
 NSaved= 1 IEnMin= 1 EnMin= -75.9570755848094     IErMin= 1 ErrMin= 5.07D-02
 ErrMax= 5.07D-02  0.00D+00 EMaxC= 1.00D-01 BMatC= 1.15D-01 BMatP= 1.15D-01
 IDIUse=3 WtCom= 4.93D-01 WtEn= 5.07D-01
 Coeff-Com:  0.100D+01
 Coeff-En:   0.100D+01
 Coeff:      0.100D+01
 Gap=     0.457 Goal=   None    Shift=    0.000
 GapD=    0.457 DampG=2.000 DampE=0.500 DampFc=1.0000 IDamp=-1.
 RMSDP=6.21D-03 MaxDP=1.17D-01              OVMax= 1.20D-01

 Cycle   2  Pass 1  IDiag  1:
 E= -76.0000507670415     Delta-E=       -0.042975182232 Rises=F Damp=F
 DIIS: error= 4.05D-02 at cycle   2 NSaved=   2.
 NSaved= 2 IEnMin= 2 EnMin= -76.0000507670415     IErMin= 2 ErrMin= 4.05D-02
 ErrMax= 4.05D-02  0.00D+00 EMaxC= 1.00D-01 BMatC= 4.61D-02 BMatP= 1.15D-01
 IDIUse=3 WtCom= 5.95D-01 WtEn= 4.05D-01
 Coeff-Com:  0.377D+00 0.623D+00
 Coeff-En:   0.224D+00 0.776D+00
 Coeff:      0.315D+00 0.685D+00
 Gap=     0.555 Goal=   None    Shift=    0.000
 RMSDP=2.93D-03 MaxDP=5.47D-02 DE=-4.30D-02 OVMax= 5.95D-02

 Cycle   3  Pass 1  IDiag  1:
 E= -76.0319885360828     Delta-E=       -0.031937769041 Rises=F Damp=F
 DIIS: error= 4.66D-03 at cycle   3 NSaved=   3.
 NSaved= 3 IEnMin= 3 EnMin= -76.0319885360828     IErMin= 3 ErrMin= 4.66D-03
 ErrMax= 4.66D-03  0.00D+00 EMaxC= 1.00D-01 BMatC= 1.14D-03 BMatP= 4.61D-02
 IDIUse=3 WtCom= 9.53D-01 WtEn= 4.66D-02
 Coeff-Com: -0.374D-01 0.919D-01 0.946D+00
 Coeff-En:   0.000D+00 0.000D+00 0.100D+01
 Coeff:     -0.357D-01 0.876D-01 0.948D+00
 Gap=     0.537 Goal=   None    Shift=    0.000
 RMSDP=4.70D-04 MaxDP=8.15D-03 DE=-3.19D-02 OVMax= 9.20D-03

 Cycle   4  Pass 1  IDiag  1:
 E= -76.0328641863135     Delta-E=       -0.000875650231 Rises=F Damp=F
 DIIS: error= 6.49D-04 at cycle   4 NSaved=   4.
 NSaved= 4 IEnMin= 4 EnMin= -76.0328641863135     IErMin= 4 ErrMin= 6.49D-04
 ErrMax= 6.49D-04  0.00D+00 EMaxC= 1.00D-01 BMatC= 8.30D-06 BMatP= 1.14D-03
 IDIUse=3 WtCom= 9.94D-01 WtEn= 6.49D-03
 Coeff-Com:  0.830D-02-0.427D-01-0.322D+00 0.136D+01
 Coeff-En:   0.000D+00 0.000D+00 0.000D+00 0.100D+01
 Coeff:      0.824D-02-0.424D-01-0.320D+00 0.135D+01
 Gap=     0.538 Goal=   None    Shift=    0.000
 RMSDP=1.23D-04 MaxDP=1.19D-03 DE=-8.76D-04 OVMax= 2.56D-03

 Cycle   5  Pass 1  IDiag  1:
 E= -76.0328854912757     Delta-E=       -0.000021304962 Rises=F Damp=F
 DIIS: error= 1.84D-04 at cycle   5 NSaved=   5.
 NSaved= 5 IEnMin= 5 EnMin= -76.0328854912757     IErMin= 5 ErrMin= 1.84D-04
 ErrMax= 1.84D-04  0.00D+00 EMaxC= 1.00D-01 BMatC= 4.11D-07 BMatP= 8.30D-06
 IDIUse=3 WtCom= 9.98D-01 WtEn= 1.84D-03
 Coeff-Com:  0.351D-03 0.219D-02 0.122D-01-0.263D+00 0.125D+01
 Coeff-En:   0.000D+00 0.000D+00 0.000D+00 0.000D+00 0.100D+01
 Coeff:      0.350D-03 0.219D-02 0.122D-01-0.262D+00 0.125D+01
 Gap=     0.538 Goal=   None    Shift=    0.000
 RMSDP=3.24D-05 MaxDP=4.13D-04 DE=-2.13D-05 OVMax= 7.50D-04

 Cycle   6  Pass 1  IDiag  1:
 E= -76.0328868308715     Delta-E=       -0.000001339596 Rises=F Damp=F
 DIIS: error= 3.79D-05 at cycle   6 NSaved=   6.
 NSaved= 6 IEnMin= 6 EnMin= -76.0328868308715     IErMin= 6 ErrMin= 3.79D-05
 ErrMax= 3.79D-05  0.00D+00 EMaxC= 1.00D-01 BMatC= 1.79D-08 BMatP= 4.11D-07
 IDIUse=1 WtCom= 1.00D+00 WtEn= 0.00D+00
 Coeff-Com: -0.435D-03 0.157D-02 0.131D-01-0.198D-01-0.250D+00 0.126D+01
 Coeff:     -0.435D-03 0.157D-02 0.131D-01-0.198D-01-0.250D+00 0.126D+01
 Gap=     0.539 Goal=   None    Shift=    0.000
 RMSDP=6.25D-06 MaxDP=1.06D-04 DE=-1.34D-06 OVMax= 1.78D-04

 Cycle   7  Pass 1  IDiag  1:
 E= -76.0328868915203     Delta-E=       -0.000000060649 Rises=F Damp=F
 DIIS: error= 8.23D-06 at cycle   7 NSaved=   7.
 NSaved= 7 IEnMin= 7 EnMin= -76.0328868915203     IErMin= 7 ErrMin= 8.23D-06
 ErrMax= 8.23D-06  0.00D+00 EMaxC= 1.00D-01 BMatC= 9.14D-10 BMatP= 1.79D-08
 IDIUse=1 WtCom= 1.00D+00 WtEn= 0.00D+00
 Coeff-Com:  0.164D-03-0.766D-03-0.631D-02 0.232D-01 0.393D-01-0.493D+00
 Coeff-Com:  0.144D+01
 Coeff:      0.164D-03-0.766D-03-0.631D-02 0.232D-01 0.393D-01-0.493D+00
 Coeff:      0.144D+01
 Gap=     0.539 Goal=   None    Shift=    0.000
 RMSDP=1.26D-06 MaxDP=2.62D-05 DE=-6.06D-08 OVMax= 3.86D-05

 Cycle   8  Pass 1  IDiag  1:
 E= -76.0328868941968     Delta-E=       -0.000000002676 Rises=F Damp=F
 DIIS: error= 1.17D-06 at cycle   8 NSaved=   8.
 NSaved= 8 IEnMin= 8 EnMin= -76.0328868941968     IErMin= 8 ErrMin= 1.17D-06
 ErrMax= 1.17D-06  0.00D+00 EMaxC= 1.00D-01 BMatC= 2.48D-11 BMatP= 9.14D-10
 IDIUse=1 WtCom= 1.00D+00 WtEn= 0.00D+00
 Coeff-Com: -0.217D-04 0.117D-03 0.104D-02-0.523D-02 0.106D-02 0.745D-01
 Coeff-Com: -0.360D+00 0.129D+01
 Coeff:     -0.217D-04 0.117D-03 0.104D-02-0.523D-02 0.106D-02 0.745D-01
 Coeff:     -0.360D+00 0.129D+01
 Gap=     0.539 Goal=   None    Shift=    0.000
 RMSDP=2.33D-07 MaxDP=3.27D-06 DE=-2.68D-09 OVMax= 4.66D-06

 Cycle   9  Pass 1  IDiag  1:
 E= -76.0328868942557     Delta-E=       -0.000000000059 Rises=F Damp=F
 DIIS: error= 1.35D-07 at cycle   9 NSaved=   9.
 NSaved= 9 IEnMin= 9 EnMin= -76.0328868942557     IErMin= 9 ErrMin= 1.35D-07
 ErrMax= 1.35D-07  0.00D+00 EMaxC= 1.00D-01 BMatC= 4.35D-13 BMatP= 2.48D-11
 IDIUse=1 WtCom= 1.00D+00 WtEn= 0.00D+00
 Coeff-Com: -0.466D-05 0.217D-04 0.173D-03-0.578D-03-0.120D-02 0.124D-01
 Coeff-Com: -0.292D-01-0.531D-01 0.107D+01
 Coeff:     -0.466D-05 0.217D-04 0.173D-03-0.578D-03-0.120D-02 0.124D-01
 Coeff:     -0.292D-01-0.531D-01 0.107D+01
 Gap=     0.539 Goal=   None    Shift=    0.000
 RMSDP=3.04D-08 MaxDP=3.09D-07 DE=-5.89D-11 OVMax= 4.80D-07

 Cycle  10  Pass 1  IDiag  1:
 E= -76.0328868942567     Delta-E=       -0.000000000001 Rises=F Damp=F
 DIIS: error= 3.68D-08 at cycle  10 NSaved=  10.
 NSaved=10 IEnMin=10 EnMin= -76.0328868942567     IErMin=10 ErrMin= 3.68D-08
 ErrMax= 3.68D-08  0.00D+00 EMaxC= 1.00D-01 BMatC= 2.77D-14 BMatP= 4.35D-13
 IDIUse=1 WtCom= 1.00D+00 WtEn= 0.00D+00
 Coeff-Com:  0.171D-05-0.849D-05-0.712D-04 0.294D-03 0.305D-03-0.549D-02
 Coeff-Com:  0.198D-01-0.354D-01-0.287D+00 0.131D+01
 Coeff:      0.171D-05-0.849D-05-0.712D-04 0.294D-03 0.305D-03-0.549D-02
 Coeff:      0.198D-01-0.354D-01-0.287D+00 0.131D+01
 Gap=     0.539 Goal=   None    Shift=    0.000
 RMSDP=8.45D-09 MaxDP=8.49D-08 DE=-1.08D-12 OVMax= 1.41D-07

 SCF Done:  E(RHF) =  -76.0328868943     A.U. after   10 cycles
            NFock= 10  Conv=0.84D-08     -V/T= 2.0029
 KE= 7.580996711032D+01 PE=-1.983339412936D+02 EE= 3.756809687896D+01
 Leave Link  502 at Wed Feb  8 14:49:57 2023, MaxMem=   754974720 cpu:               0.6 elap:               0.2
 (Enter /opt/cluster/programs/g16-c.01/g16/l801.exe)
 Windowed orbitals will be sorted by symmetry type.
 ExpMin= 2.97D-02 ExpMax= 1.17D+04 ExpMxC= 4.01D+02 IAcc=3 IRadAn=         5 AccDes= 0.00D+00
 HarFok:  IExCor=  205 AccDes= 0.00D+00 IRadAn=         5 IDoV=-2 UseB2=F ITyADJ=14
 ICtDFT= 12500011 ScaDFX=  1.000000  1.000000  1.000000  1.000000
 Largest valence mixing into a core orbital is  6.14D-05
 Largest core mixing into a valence orbital is  1.83D-05
 Range of M.O.s used for correlation:     2    41
 NBasis=    41 NAE=     5 NBE=     5 NFC=     1 NFV=     0
 NROrb=     40 NOA=     4 NOB=     4 NVA=    36 NVB=    36
 Leave Link  801 at Wed Feb  8 14:49:57 2023, MaxMem=   754974720 cpu:               0.5 elap:               0.2
 (Enter /opt/cluster/programs/g16-c.01/g16/l804.exe)
 Closed-shell transformation, MDV=   754974720 ITran=4 ISComp=2.
 Unit  1 TFree=         57024 TCopy=        242858.
 Semi-Direct transformation.
 ModeAB=           2 MOrb=             4 LenV=     754769661
 LASXX=        60334 LTotXX=       60334 LenRXX=       60334
 LTotAB=       65632 MaxLAS=      151360 LenRXY=      151360
 NonZer=      159520 LenScr=      785920 LnRSAI=           0
 LnScr1=           0 LExtra=           0 Total=       997614
 MaxDsk=          -1 SrtSym=           F ITran=            4
 DoSDTr:  NPSUse=  4
 JobTyp=0 Pass  1:  I=   1 to   4.
 (rs|ai) integrals will be sorted in core.
 Complete sort for first half transformation.
 First half transformation complete.
 Complete sort for second half transformation.
 Second half transformation complete.
 Spin components of T(2) and E(2):
     alpha-alpha T2 =       0.7903816637D-02 E2=     -0.2814289166D-01
     alpha-beta  T2 =       0.4483646597D-01 E2=     -0.1649211669D+00
     beta-beta   T2 =       0.7903816637D-02 E2=     -0.2814289166D-01
 ANorm=    0.1029875769D+01
 E2 =    -0.2212069502D+00 EUMP2 =    -0.76254093844452D+02
 Leave Link  804 at Wed Feb  8 14:49:57 2023, MaxMem=   754974720 cpu:               0.4 elap:               0.1
 (Enter /opt/cluster/programs/g16-c.01/g16/l913.exe)
 CIDS:  MDV=   754974720.
 Frozen-core window:  NFC=   1 NFV=   0.
 IFCWin=0 IBDFC=1 NFBD=     0     0 NFCmp=     0     0 NFFFC=     0     0
 Using DD3R+UMP44R for 1st iteration.
 Using DD4RQ for 2nd and later iterations.
 Keep R2 and R3 ints in memory in symmetry-blocked form, NReq=1234037.
 FoFCou: FMM=F IPFlag=           0 FMFlag=           0 FMFlg1=           0
         NFxFlg=           0 DoJE=F BraDBF=F KetDBF=F FulRan=T
         wScrn=  0.000000 ICntrl=       600 IOpCl=  0 I1Cent=           0 NGrid=           0
         NMat0=    1 NMatS0=    861 NMatT0=    0 NMatD0=    1 NMtDS0=    0 NMtDT0=    0
 Petite list used in FoFCou.
 CIDS: In Core Option IDoMem=           1.
 CCSD(T)
 =======
 Iterations=  50 Convergence= 0.100D-06
 Produce multiple copies of IABC intergrals
 Iteration Nr.   1
 **********************
 DD1Dir will call FoFMem   1 times, MxPair=        20
 NAB=    10 NAA=     0 NBB=     0.
 MP4(R+Q)=  0.25232792D-02
 Maximum subspace dimension=  5
 A-vector RMS=  5.5908056D-03 Max=  1.7861324D-02 conv= 1.00D-05.
 RLE energy=       -0.2230089472
 E3=       -0.44079293D-02        EUMP3=      -0.76258501774D+02
 E4(DQ)=   -0.16407752D-02        UMP4(DQ)=   -0.76260142549D+02
 E4(SDQ)=  -0.34534395D-02        UMP4(SDQ)=  -0.76261955213D+02
 VARIATIONAL ENERGIES WITH THE FIRST-ORDER WAVEFUNCTION:
 DE(Corr)= -0.22299443     E(Corr)=     -76.255881324    
 NORM(A)=   0.10308645D+01
 Iteration Nr.   2
 **********************
 DD1Dir will call FoFMem   1 times, MxPair=        20
 NAB=    10 NAA=     0 NBB=     0.
 A-vector RMS=  6.7885729D-04 Max=  3.1993315D-03 conv= 1.00D-05.
 RLE energy=       -0.2284011601
 DE(Corr)= -0.22776583     E(CORR)=     -76.260652723     Delta=-4.77D-03
 NORM(A)=   0.10332111D+01
 Iteration Nr.   3
 **********************
 DD1Dir will call FoFMem   1 times, MxPair=        20
 NAB=    10 NAA=     0 NBB=     0.
 A-vector RMS=  7.9168969D-04 Max=  3.0499677D-03 conv= 1.00D-05.
 RLE energy=       -0.2288055101
 DE(Corr)= -0.22835140     E(CORR)=     -76.261238294     Delta=-5.86D-04
 NORM(A)=   0.10337809D+01
 Iteration Nr.   4
 **********************
 DD1Dir will call FoFMem   1 times, MxPair=        20
 NAB=    10 NAA=     0 NBB=     0.
 A-vector RMS=  9.9798291D-05 Max=  3.9355416D-04 conv= 1.00D-05.
 RLE energy=       -0.2288456921
 DE(Corr)= -0.22881303     E(CORR)=     -76.261699920     Delta=-4.62D-04
 NORM(A)=   0.10339054D+01
 Iteration Nr.   5
 **********************
 DD1Dir will call FoFMem   1 times, MxPair=        20
 NAB=    10 NAA=     0 NBB=     0.
 A-vector RMS=  4.4625560D-05 Max=  1.6617516D-04 conv= 1.00D-05.
 RLE energy=       -0.2288523854
 DE(Corr)= -0.22884817     E(CORR)=     -76.261735064     Delta=-3.51D-05
 NORM(A)=   0.10339265D+01
 Iteration Nr.   6
 **********************
 DD1Dir will call FoFMem   1 times, MxPair=        20
 NAB=    10 NAA=     0 NBB=     0.
 A-vector RMS=  1.2325742D-05 Max=  3.8704435D-05 conv= 1.00D-05.
 RLE energy=       -0.2288492166
 DE(Corr)= -0.22885074     E(CORR)=     -76.261737633     Delta=-2.57D-06
 NORM(A)=   0.10339287D+01
 Iteration Nr.   7
 **********************
 DD1Dir will call FoFMem   1 times, MxPair=        20
 NAB=    10 NAA=     0 NBB=     0.
 A-vector RMS=  5.7169124D-06 Max=  2.3052774D-05 conv= 1.00D-05.
 RLE energy=       -0.2288499316
 DE(Corr)= -0.22885078     E(CORR)=     -76.261737678     Delta=-4.55D-08
 NORM(A)=   0.10339294D+01
 Iteration Nr.   8
 **********************
 DD1Dir will call FoFMem   1 times, MxPair=        20
 NAB=    10 NAA=     0 NBB=     0.
 A-vector RMS=  1.9592372D-06 Max=  7.3073224D-06 conv= 1.00D-05.
 RLE energy=       -0.2288502129
 DE(Corr)= -0.22885035     E(CORR)=     -76.261737246     Delta= 4.32D-07
 NORM(A)=   0.10339299D+01
 Iteration Nr.   9
 **********************
 DD1Dir will call FoFMem   1 times, MxPair=        20
 NAB=    10 NAA=     0 NBB=     0.
 A-vector RMS=  7.0053451D-07 Max=  2.7253799D-06 conv= 1.00D-05.
 RLE energy=       -0.2288505559
 DE(Corr)= -0.22885056     E(CORR)=     -76.261737451     Delta=-2.05D-07
 NORM(A)=   0.10339301D+01
 Iteration Nr.  10
 **********************
 DD1Dir will call FoFMem   1 times, MxPair=        20
 NAB=    10 NAA=     0 NBB=     0.
 A-vector RMS=  2.9443929D-07 Max=  1.0322303D-06 conv= 1.00D-05.
 RLE energy=       -0.2288505972
 DE(Corr)= -0.22885056     E(CORR)=     -76.261737458     Delta=-7.57D-09
 NORM(A)=   0.10339302D+01
 CI/CC converged in   10 iterations to DelEn=-7.57D-09 Conv= 1.00D-07 ErrA1= 2.94D-07 Conv= 1.00D-05
 Wavefunction amplitudes converged. E(Corr)=     -76.261737458    
 Largest amplitude= 3.45D-02
 IPart=  3 IA=    3   10.95% done.
 IPart=  1 IA=    5   21.27% done.
 IPart=  4 IA=    7   30.95% done.
 IPart=  3 IA=    9   40.00% done.
 IPart=  2 IA=   12   52.38% done.
 IPart=  2 IA=   15   63.33% done.
 IPart=  2 IA=   18   72.86% done.
 IPart=  4 IA=   21   80.95% done.
 IPart=  4 IA=   26   91.27% done.
 Time for triples=        0.42 seconds.
 T4(CCSD)= -0.57967701D-02
 T5(CCSD)=  0.42891262D-03
 CCSD(T)= -0.76267105316D+02
 Discarding MO integrals.
 Leave Link  913 at Wed Feb  8 14:50:02 2023, MaxMem=   754974720 cpu:              12.0 elap:               4.0
 (Enter /opt/cluster/programs/g16-c.01/g16/l601.exe)
 Copying SCF densities to generalized density rwf, IOpCl= 0 IROHF=0.

 **********************************************************************

            Population analysis using the SCF Density.

 **********************************************************************

 Orbital symmetries:
       Occupied  (A') (A') (A') (A') (A")
       Virtual   (A') (A') (A') (A") (A') (A') (A') (A') (A") (A')
                 (A") (A') (A') (A') (A') (A') (A") (A') (A") (A')
                 (A') (A") (A') (A') (A") (A") (A') (A') (A') (A')
                 (A') (A") (A') (A") (A') (A')
 The electronic state is 1-A'.
 Alpha  occ. eigenvalues --  -20.57422  -1.33474  -0.72833  -0.55382  -0.50278
 Alpha virt. eigenvalues --    0.03581   0.05654   0.17621   0.19659   0.21554
 Alpha virt. eigenvalues --    0.22750   0.29265   0.30996   0.37595   0.42903
 Alpha virt. eigenvalues --    0.45201   0.52018   0.63904   0.65589   0.83823
 Alpha virt. eigenvalues --    0.87401   1.08549   1.09123   1.14715   1.39286
 Alpha virt. eigenvalues --    1.46550   1.49023   1.57037   1.96361   2.03014
 Alpha virt. eigenvalues --    2.06479   2.39489   2.42881   2.58165   2.73990
 Alpha virt. eigenvalues --    2.85939   3.65825   3.66674   3.70342   4.10369
 Alpha virt. eigenvalues --    4.21535
          Condensed to atoms (all electrons):
               1          2          3
     1  O    7.732304   0.340825   0.324109
     2  H    0.340825   0.529348  -0.039291
     3  H    0.324109  -0.039291   0.487061
 Mulliken charges:
               1
     1  O   -0.397238
     2  H    0.169117
     3  H    0.228121
 Sum of Mulliken charges =   0.00000
 Mulliken charges with hydrogens summed into heavy atoms:
               1
     1  O    0.000000
 Electronic spatial extent (au):  <R**2>=             19.9208
 Charge=              0.0000 electrons
 Dipole moment (field-independent basis, Debye):
    X=              0.0128    Y=             -1.7712    Z=              0.0000  Tot=              1.7713
 Quadrupole moment (field-independent basis, Debye-Ang):
   XX=             -3.5892   YY=             -6.7010   ZZ=             -7.6844
   XY=              0.2032   XZ=              0.0000   YZ=              0.0000
 Traceless Quadrupole moment (field-independent basis, Debye-Ang):
   XX=              2.4023   YY=             -0.7095   ZZ=             -1.6929
   XY=              0.2032   XZ=              0.0000   YZ=              0.0000
 Octapole moment (field-independent basis, Debye-Ang**2):
  XXX=              0.0493  YYY=             -0.9267  ZZZ=              0.0000  XYY=             -0.1159
  XXY=             -1.4564  XXZ=              0.0000  XZZ=              0.0302  YZZ=             -0.2422
  YYZ=              0.0000  XYZ=              0.0000
 Hexadecapole moment (field-independent basis, Debye-Ang**3):
 XXXX=             -5.6125 YYYY=             -7.5188 ZZZZ=             -7.0255 XXXY=              0.0664
 XXXZ=              0.0000 YYYX=             -0.0108 YYYZ=              0.0000 ZZZX=              0.0000
 ZZZY=              0.0000 XXYY=             -2.0882 XXZZ=             -2.6147 YYZZ=             -2.4554
 XXYZ=              0.0000 YYXZ=              0.0000 ZZXY=             -0.0390
 N-N= 8.922990410069D+00 E-N=-1.983339409451D+02  KE= 7.580996711032D+01
 Symmetry A'   KE= 7.138059314879D+01
 Symmetry A"   KE= 4.429373961521D+00
 Leave Link  601 at Wed Feb  8 14:50:02 2023, MaxMem=   754974720 cpu:               0.4 elap:               0.2
 (Enter /opt/cluster/programs/g16-c.01/g16/l9999.exe)
 Unable to Open any file for archive entry.
 1\1\GINC-NODE58\SP\RCCSD(T)-FC\Aug-CC-pVDZ\H2O1\BOITTIER\08-Feb-2023\0
 \\#P CCSD(T)/aug-cc-pVDZ scf(maxcycle=200)\\Gaussian input\\0,1\O,0,0.
 ,0.11751,0.\H,0,0.7578497316,-0.4701504329,0.\H,0,-0.9234862988,-0.289
 0045211,0.\\Version=ES64L-G16RevC.01\State=1-A'\HF=-76.0328869\MP2=-76
 .2540938\MP3=-76.2585018\MP4D=-76.2626658\MP4DQ=-76.2601425\MP4SDQ=-76
 .2619552\CCSD=-76.2617375\CCSD(T)=-76.2671053\RMSD=8.448e-09\PG=CS [SG
 (H2O1)]\\@
 The archive entry for this job was punched.


 THE WORLD IS MADE UP OF THE WILLS, THE WON'TS, AND THE CANT'S:
 THE WILLS DO EVERYTHING,
 THE WON'TS DO NOTHING,
 THE CAN'TS CAN'T DO ANYTHING.

                               -- FROM WALT DISNEY'S "BLACK HOLE"
 Job cpu time:       0 days  0 hours  0 minutes 16.5 seconds.
 Elapsed time:       0 days  0 hours  0 minutes  5.5 seconds.
 File lengths (MBytes):  RWF=     15 Int=      0 D2E=      0 Chk=      1 Scr=      1
 Normal termination of Gaussian 16 at Wed Feb  8 14:50:02 2023.
