 Entering Gaussian System, Link 0=/opt/cluster/programs/g16-c.01/g16/g16
 Input=/scratch/boittier/jobs/tmp.7311951/gaussian_123_water_hf_adz2.com
 Output=/scratch/boittier/jobs/tmp.7311951/gaussian_123_water_hf_adz2.out
 Initial command:
 /opt/cluster/programs/g16-c.01/g16/l1.exe "/scratch/boittier/jobs/tmp.7311951/Gau-182110.inp" -scrdir="/scratch/boittier/jobs/tmp.7311951/"
 Entering Link 1 = /opt/cluster/programs/g16-c.01/g16/l1.exe PID=    182117.
  
 Copyright (c) 1988-2019, Gaussian, Inc.  All Rights Reserved.
  
 This is part of the Gaussian(R) 16 program.  It is based on
 the Gaussian(R) 09 system (copyright 2009, Gaussian, Inc.),
 the Gaussian(R) 03 system (copyright 2003, Gaussian, Inc.),
 the Gaussian(R) 98 system (copyright 1998, Gaussian, Inc.),
 the Gaussian(R) 94 system (copyright 1995, Gaussian, Inc.),
 the Gaussian 92(TM) system (copyright 1992, Gaussian, Inc.),
 the Gaussian 90(TM) system (copyright 1990, Gaussian, Inc.),
 the Gaussian 88(TM) system (copyright 1988, Gaussian, Inc.),
 the Gaussian 86(TM) system (copyright 1986, Carnegie Mellon
 University), and the Gaussian 82(TM) system (copyright 1983,
 Carnegie Mellon University). Gaussian is a federally registered
 trademark of Gaussian, Inc.
  
 This software contains proprietary and confidential information,
 including trade secrets, belonging to Gaussian, Inc.
  
 This software is provided under written license and may be
 used, copied, transmitted, or stored only in accord with that
 written license.
  
 The following legend is applicable only to US Government
 contracts under FAR:
  
                    RESTRICTED RIGHTS LEGEND
  
 Use, reproduction and disclosure by the US Government is
 subject to restrictions as set forth in subparagraphs (a)
 and (c) of the Commercial Computer Software - Restricted
 Rights clause in FAR 52.227-19.
  
 Gaussian, Inc.
 340 Quinnipiac St., Bldg. 40, Wallingford CT 06492
  
  
 ---------------------------------------------------------------
 Warning -- This program may not be used in any manner that
 competes with the business of Gaussian, Inc. or will provide
 assistance to any competitor of Gaussian, Inc.  The licensee
 of this program is prohibited from giving any competitor of
 Gaussian, Inc. access to this program.  By using this program,
 the user acknowledges that Gaussian, Inc. is engaged in the
 business of creating and licensing software in the field of
 computational chemistry and represents and warrants to the
 licensee that it is not a competitor of Gaussian, Inc. and that
 it will not use this program in any manner prohibited above.
 ---------------------------------------------------------------
  

 Cite this work as:
 Gaussian 16, Revision C.01,
 M. J. Frisch, G. W. Trucks, H. B. Schlegel, G. E. Scuseria, 
 M. A. Robb, J. R. Cheeseman, G. Scalmani, V. Barone, 
 G. A. Petersson, H. Nakatsuji, X. Li, M. Caricato, A. V. Marenich, 
 J. Bloino, B. G. Janesko, R. Gomperts, B. Mennucci, H. P. Hratchian, 
 J. V. Ortiz, A. F. Izmaylov, J. L. Sonnenberg, D. Williams-Young, 
 F. Ding, F. Lipparini, F. Egidi, J. Goings, B. Peng, A. Petrone, 
 T. Henderson, D. Ranasinghe, V. G. Zakrzewski, J. Gao, N. Rega, 
 G. Zheng, W. Liang, M. Hada, M. Ehara, K. Toyota, R. Fukuda, 
 J. Hasegawa, M. Ishida, T. Nakajima, Y. Honda, O. Kitao, H. Nakai, 
 T. Vreven, K. Throssell, J. A. Montgomery, Jr., J. E. Peralta, 
 F. Ogliaro, M. J. Bearpark, J. J. Heyd, E. N. Brothers, K. N. Kudin, 
 V. N. Staroverov, T. A. Keith, R. Kobayashi, J. Normand, 
 K. Raghavachari, A. P. Rendell, J. C. Burant, S. S. Iyengar, 
 J. Tomasi, M. Cossi, J. M. Millam, M. Klene, C. Adamo, R. Cammi, 
 J. W. Ochterski, R. L. Martin, K. Morokuma, O. Farkas, 
 J. B. Foresman, and D. J. Fox, Gaussian, Inc., Wallingford CT, 2019.
 
 ******************************************
 Gaussian 16:  ES64L-G16RevC.01  3-Jul-2019
                20-Feb-2023 
 ******************************************
 %nproc=4
 Will use up to    4 processors via shared memory.
 %mem=5760MB
 %chk=gaussian_123_water_hf_adz2.chk
 -----------------------------------
 #P HF/aug-cc-pVDZ scf(maxcycle=200)
 -----------------------------------
 1/38=1,172=1/1;
 2/12=2,17=6,18=5,40=1/2;
 3/5=16,7=10,11=9,25=1,30=1/1,2,3;
 4//1;
 5/5=2,7=200,38=5/2;
 6/7=2,8=2,9=2,10=2,28=1/1;
 99/5=1,9=1/99;
 Leave Link    1 at Mon Feb 20 10:16:37 2023, MaxMem=   754974720 cpu:               0.2 elap:               0.1
 (Enter /opt/cluster/programs/g16-c.01/g16/l101.exe)
 --------------
 Gaussian input
 --------------
 Symbolic Z-matrix:
 Charge =  0 Multiplicity = 1
 O                     0.        0.11751   0. 
 H                     0.79736  -0.50079   0. 
 H                    -0.56265  -0.59643   0. 
 
 ITRead=  0  0  0
 MicOpt= -1 -1 -1
 NAtoms=      3 NQM=        3 NQMF=       0 NMMI=      0 NMMIF=      0
                NMic=       0 NMicF=      0.
                    Isotopes and Nuclear Properties:
 (Nuclear quadrupole moments (NQMom) in fm**2, nuclear magnetic moments (NMagM)
  in nuclear magnetons)

  Atom         1           2           3
 IAtWgt=          16           1           1
 AtmWgt=  15.9949146   1.0078250   1.0078250
 NucSpn=           0           1           1
 AtZEff=  -0.0000000  -0.0000000  -0.0000000
 NQMom=    0.0000000   0.0000000   0.0000000
 NMagM=    0.0000000   2.7928460   2.7928460
 AtZNuc=   8.0000000   1.0000000   1.0000000
 Leave Link  101 at Mon Feb 20 10:16:37 2023, MaxMem=   754974720 cpu:               0.9 elap:               0.4
 (Enter /opt/cluster/programs/g16-c.01/g16/l202.exe)
                          Input orientation:                          
 ---------------------------------------------------------------------
 Center     Atomic      Atomic             Coordinates (Angstroms)
 Number     Number       Type             X           Y           Z
 ---------------------------------------------------------------------
      1          8           0        0.000000    0.117510    0.000000
      2          1           0        0.797362   -0.500790    0.000000
      3          1           0       -0.562646   -0.596430    0.000000
 ---------------------------------------------------------------------
                    Distance matrix (angstroms):
                    1          2          3
     1  O    0.000000
     2  H    1.009000   0.000000
     3  H    0.909000   1.363367   0.000000
 Stoichiometry    H2O
 Framework group  CS[SG(H2O)]
 Deg. of freedom     3
 Full point group                 CS      NOp   2
 Largest Abelian subgroup         CS      NOp   2
 Largest concise Abelian subgroup C1      NOp   1
                         Standard orientation:                         
 ---------------------------------------------------------------------
 Center     Atomic      Atomic             Coordinates (Angstroms)
 Number     Number       Type             X           Y           Z
 ---------------------------------------------------------------------
      1          8           0        0.000000    0.135276   -0.000000
      2          1           0        0.677987   -0.611996    0.000000
      3          1           0       -0.677987   -0.470211    0.000000
 ---------------------------------------------------------------------
 Rotational constants (GHZ):         656.8898082         512.4289806         287.8679262
 Leave Link  202 at Mon Feb 20 10:16:37 2023, MaxMem=   754974720 cpu:               0.1 elap:               0.0
 (Enter /opt/cluster/programs/g16-c.01/g16/l301.exe)
 Standard basis: Aug-CC-pVDZ (5D, 7F)
 Ernie: Thresh=  0.10000D-02 Tol=  0.10000D-05 Strict=F.
 Ernie:  2 primitive shells out of 39 were deleted.
 There are    32 symmetry adapted cartesian basis functions of A'  symmetry.
 There are    11 symmetry adapted cartesian basis functions of A"  symmetry.
 There are    30 symmetry adapted basis functions of A'  symmetry.
 There are    11 symmetry adapted basis functions of A"  symmetry.
    41 basis functions,    65 primitive gaussians,    43 cartesian basis functions
     5 alpha electrons        5 beta electrons
       nuclear repulsion energy         9.2410219845 Hartrees.
 IExCor=    0 DFT=F Ex=HF Corr=None ExCW=0 ScaHFX=  1.000000
 ScaDFX=  1.000000  1.000000  1.000000  1.000000 ScalE2=  1.000000  1.000000
 IRadAn=      5 IRanWt=     -1 IRanGd=            0 ICorTp=0 IEmpDi=  4
 NAtoms=    3 NActive=    3 NUniq=    3 SFac= 1.00D+00 NAtFMM=   60 NAOKFM=F Big=F
 Integral buffers will be    131072 words long.
 Raffenetti 1 integral format.
 Two-electron integral symmetry is turned on.
 Leave Link  301 at Mon Feb 20 10:16:37 2023, MaxMem=   754974720 cpu:               0.1 elap:               0.1
 (Enter /opt/cluster/programs/g16-c.01/g16/l302.exe)
 NPDir=0 NMtPBC=     1 NCelOv=     1 NCel=       1 NClECP=     1 NCelD=      1
         NCelK=      1 NCelE2=     1 NClLst=     1 CellRange=     0.0.
 One-electron integrals computed using PRISM.
 One-electron integral symmetry used in STVInt
 NBasis=    41 RedAO= T EigKep=  1.95D-03  NBF=    30    11
 NBsUse=    41 1.00D-06 EigRej= -1.00D+00 NBFU=    30    11
 Leave Link  302 at Mon Feb 20 10:16:38 2023, MaxMem=   754974720 cpu:               1.5 elap:               0.6
 (Enter /opt/cluster/programs/g16-c.01/g16/l303.exe)
 DipDrv:  MaxL=1.
 Leave Link  303 at Mon Feb 20 10:16:38 2023, MaxMem=   754974720 cpu:               0.2 elap:               0.1
 (Enter /opt/cluster/programs/g16-c.01/g16/l401.exe)
 ExpMin= 2.97D-02 ExpMax= 1.17D+04 ExpMxC= 4.01D+02 IAcc=3 IRadAn=         5 AccDes= 0.00D+00
 Harris functional with IExCor=  205 and IRadAn=       5 diagonalized for initial guess.
 HarFok:  IExCor=  205 AccDes= 0.00D+00 IRadAn=         5 IDoV= 1 UseB2=F ITyADJ=14
 ICtDFT=  3500011 ScaDFX=  1.000000  1.000000  1.000000  1.000000
 FoFCou: FMM=F IPFlag=           0 FMFlag=      100000 FMFlg1=           0
         NFxFlg=           0 DoJE=T BraDBF=F KetDBF=T FulRan=T
         wScrn=  0.000000 ICntrl=       500 IOpCl=  0 I1Cent=   200000004 NGrid=           0
         NMat0=    1 NMatS0=      1 NMatT0=    0 NMatD0=    1 NMtDS0=    0 NMtDT0=    0
 Petite list used in FoFCou.
 Harris En= -76.1148310459259    
 JPrj=0 DoOrth=F DoCkMO=F.
 Initial guess orbital symmetries:
       Occupied  (A') (A') (A') (A') (A")
       Virtual   (A') (A') (A') (A") (A') (A') (A') (A') (A') (A")
                 (A") (A') (A') (A') (A') (A') (A") (A') (A") (A')
                 (A") (A') (A') (A") (A') (A") (A') (A') (A') (A')
                 (A') (A") (A') (A") (A') (A')
 The electronic state of the initial guess is 1-A'.
 Leave Link  401 at Mon Feb 20 10:16:38 2023, MaxMem=   754974720 cpu:               1.4 elap:               0.7
 (Enter /opt/cluster/programs/g16-c.01/g16/l502.exe)
 Keep R1 ints in memory in symmetry-blocked form, NReq=1210682.
 FoFCou: FMM=F IPFlag=           0 FMFlag=           0 FMFlg1=           0
         NFxFlg=           0 DoJE=F BraDBF=F KetDBF=F FulRan=T
         wScrn=  0.000000 ICntrl=       600 IOpCl=  0 I1Cent=           0 NGrid=           0
         NMat0=    1 NMatS0=    861 NMatT0=    0 NMatD0=    1 NMtDS0=    0 NMtDT0=    0
 Petite list used in FoFCou.
 Closed shell SCF:
 Using DIIS extrapolation, IDIIS=  1040.
 NGot=   754974720 LenX=   754771907 LenY=   754769617
 Requested convergence on RMS density matrix=1.00D-08 within 200 cycles.
 Requested convergence on MAX density matrix=1.00D-06.
 Requested convergence on             energy=1.00D-06.
 No special actions if energy rises.

 Cycle   1  Pass 1  IDiag  1:
 E= -75.9527423678176    
 DIIS: error= 5.03D-02 at cycle   1 NSaved=   1.
 NSaved= 1 IEnMin= 1 EnMin= -75.9527423678176     IErMin= 1 ErrMin= 5.03D-02
 ErrMax= 5.03D-02  0.00D+00 EMaxC= 1.00D-01 BMatC= 1.17D-01 BMatP= 1.17D-01
 IDIUse=3 WtCom= 4.97D-01 WtEn= 5.03D-01
 Coeff-Com:  0.100D+01
 Coeff-En:   0.100D+01
 Coeff:      0.100D+01
 Gap=     0.462 Goal=   None    Shift=    0.000
 GapD=    0.462 DampG=2.000 DampE=0.500 DampFc=1.0000 IDamp=-1.
 RMSDP=6.36D-03 MaxDP=1.16D-01              OVMax= 1.23D-01

 Cycle   2  Pass 1  IDiag  1:
 E= -75.9968427266089     Delta-E=       -0.044100358791 Rises=F Damp=F
 DIIS: error= 4.05D-02 at cycle   2 NSaved=   2.
 NSaved= 2 IEnMin= 2 EnMin= -75.9968427266089     IErMin= 2 ErrMin= 4.05D-02
 ErrMax= 4.05D-02  0.00D+00 EMaxC= 1.00D-01 BMatC= 4.67D-02 BMatP= 1.17D-01
 IDIUse=3 WtCom= 5.95D-01 WtEn= 4.05D-01
 Coeff-Com:  0.377D+00 0.623D+00
 Coeff-En:   0.219D+00 0.781D+00
 Coeff:      0.313D+00 0.687D+00
 Gap=     0.564 Goal=   None    Shift=    0.000
 RMSDP=3.01D-03 MaxDP=5.48D-02 DE=-4.41D-02 OVMax= 5.94D-02

 Cycle   3  Pass 1  IDiag  1:
 E= -76.0290203297817     Delta-E=       -0.032177603173 Rises=F Damp=F
 DIIS: error= 4.51D-03 at cycle   3 NSaved=   3.
 NSaved= 3 IEnMin= 3 EnMin= -76.0290203297817     IErMin= 3 ErrMin= 4.51D-03
 ErrMax= 4.51D-03  0.00D+00 EMaxC= 1.00D-01 BMatC= 1.15D-03 BMatP= 4.67D-02
 IDIUse=3 WtCom= 9.55D-01 WtEn= 4.51D-02
 Coeff-Com: -0.390D-01 0.898D-01 0.949D+00
 Coeff-En:   0.000D+00 0.000D+00 0.100D+01
 Coeff:     -0.372D-01 0.858D-01 0.951D+00
 Gap=     0.546 Goal=   None    Shift=    0.000
 RMSDP=4.72D-04 MaxDP=8.36D-03 DE=-3.22D-02 OVMax= 9.34D-03

 Cycle   4  Pass 1  IDiag  1:
 E= -76.0299045349374     Delta-E=       -0.000884205156 Rises=F Damp=F
 DIIS: error= 7.00D-04 at cycle   4 NSaved=   4.
 NSaved= 4 IEnMin= 4 EnMin= -76.0299045349374     IErMin= 4 ErrMin= 7.00D-04
 ErrMax= 7.00D-04  0.00D+00 EMaxC= 1.00D-01 BMatC= 8.01D-06 BMatP= 1.15D-03
 IDIUse=3 WtCom= 9.93D-01 WtEn= 7.00D-03
 Coeff-Com:  0.100D-01-0.443D-01-0.351D+00 0.139D+01
 Coeff-En:   0.000D+00 0.000D+00 0.000D+00 0.100D+01
 Coeff:      0.997D-02-0.440D-01-0.349D+00 0.138D+01
 Gap=     0.547 Goal=   None    Shift=    0.000
 RMSDP=1.15D-04 MaxDP=1.27D-03 DE=-8.84D-04 OVMax= 2.22D-03

 Cycle   5  Pass 1  IDiag  1:
 E= -76.0299245376389     Delta-E=       -0.000020002701 Rises=F Damp=F
 DIIS: error= 1.82D-04 at cycle   5 NSaved=   5.
 NSaved= 5 IEnMin= 5 EnMin= -76.0299245376389     IErMin= 5 ErrMin= 1.82D-04
 ErrMax= 1.82D-04  0.00D+00 EMaxC= 1.00D-01 BMatC= 3.32D-07 BMatP= 8.01D-06
 IDIUse=3 WtCom= 9.98D-01 WtEn= 1.82D-03
 Coeff-Com: -0.932D-03 0.669D-02 0.516D-01-0.361D+00 0.130D+01
 Coeff-En:   0.000D+00 0.000D+00 0.000D+00 0.000D+00 0.100D+01
 Coeff:     -0.930D-03 0.668D-02 0.515D-01-0.360D+00 0.130D+01
 Gap=     0.547 Goal=   None    Shift=    0.000
 RMSDP=2.59D-05 MaxDP=4.13D-04 DE=-2.00D-05 OVMax= 5.67D-04

 Cycle   6  Pass 1  IDiag  1:
 E= -76.0299255098725     Delta-E=       -0.000000972234 Rises=F Damp=F
 DIIS: error= 2.83D-05 at cycle   6 NSaved=   6.
 NSaved= 6 IEnMin= 6 EnMin= -76.0299255098725     IErMin= 6 ErrMin= 2.83D-05
 ErrMax= 2.83D-05  0.00D+00 EMaxC= 1.00D-01 BMatC= 1.10D-08 BMatP= 3.32D-07
 IDIUse=1 WtCom= 1.00D+00 WtEn= 0.00D+00
 Coeff-Com: -0.322D-03 0.114D-02 0.870D-02-0.141D-01-0.195D+00 0.120D+01
 Coeff:     -0.322D-03 0.114D-02 0.870D-02-0.141D-01-0.195D+00 0.120D+01
 Gap=     0.547 Goal=   None    Shift=    0.000
 RMSDP=4.23D-06 MaxDP=8.03D-05 DE=-9.72D-07 OVMax= 1.07D-04

 Cycle   7  Pass 1  IDiag  1:
 E= -76.0299255415010     Delta-E=       -0.000000031629 Rises=F Damp=F
 DIIS: error= 5.00D-06 at cycle   7 NSaved=   7.
 NSaved= 7 IEnMin= 7 EnMin= -76.0299255415010     IErMin= 7 ErrMin= 5.00D-06
 ErrMax= 5.00D-06  0.00D+00 EMaxC= 1.00D-01 BMatC= 5.11D-10 BMatP= 1.10D-08
 IDIUse=1 WtCom= 1.00D+00 WtEn= 0.00D+00
 Coeff-Com:  0.127D-03-0.628D-03-0.507D-02 0.243D-01-0.261D-01-0.248D+00
 Coeff-Com:  0.126D+01
 Coeff:      0.127D-03-0.628D-03-0.507D-02 0.243D-01-0.261D-01-0.248D+00
 Coeff:      0.126D+01
 Gap=     0.547 Goal=   None    Shift=    0.000
 RMSDP=8.32D-07 MaxDP=1.18D-05 DE=-3.16D-08 OVMax= 2.11D-05

 Cycle   8  Pass 1  IDiag  1:
 E= -76.0299255426681     Delta-E=       -0.000000001167 Rises=F Damp=F
 DIIS: error= 6.22D-07 at cycle   8 NSaved=   8.
 NSaved= 8 IEnMin= 8 EnMin= -76.0299255426681     IErMin= 8 ErrMin= 6.22D-07
 ErrMax= 6.22D-07  0.00D+00 EMaxC= 1.00D-01 BMatC= 1.22D-11 BMatP= 5.11D-10
 IDIUse=1 WtCom= 1.00D+00 WtEn= 0.00D+00
 Coeff-Com: -0.217D-04 0.120D-03 0.102D-02-0.578D-02 0.119D-01 0.332D-01
 Coeff-Com: -0.347D+00 0.131D+01
 Coeff:     -0.217D-04 0.120D-03 0.102D-02-0.578D-02 0.119D-01 0.332D-01
 Coeff:     -0.347D+00 0.131D+01
 Gap=     0.547 Goal=   None    Shift=    0.000
 RMSDP=1.78D-07 MaxDP=2.29D-06 DE=-1.17D-09 OVMax= 3.34D-06

 Cycle   9  Pass 1  IDiag  1:
 E= -76.0299255426998     Delta-E=       -0.000000000032 Rises=F Damp=F
 DIIS: error= 1.02D-07 at cycle   9 NSaved=   9.
 NSaved= 9 IEnMin= 9 EnMin= -76.0299255426998     IErMin= 9 ErrMin= 1.02D-07
 ErrMax= 1.02D-07  0.00D+00 EMaxC= 1.00D-01 BMatC= 3.57D-13 BMatP= 1.22D-11
 IDIUse=1 WtCom= 1.00D+00 WtEn= 0.00D+00
 Coeff-Com: -0.340D-06 0.213D-06-0.168D-04 0.280D-03-0.141D-02 0.188D-02
 Coeff-Com:  0.274D-01-0.235D+00 0.121D+01
 Coeff:     -0.340D-06 0.213D-06-0.168D-04 0.280D-03-0.141D-02 0.188D-02
 Coeff:      0.274D-01-0.235D+00 0.121D+01
 Gap=     0.547 Goal=   None    Shift=    0.000
 RMSDP=2.75D-08 MaxDP=3.09D-07 DE=-3.17D-11 OVMax= 4.53D-07

 Cycle  10  Pass 1  IDiag  1:
 E= -76.0299255427007     Delta-E=       -0.000000000001 Rises=F Damp=F
 DIIS: error= 2.48D-08 at cycle  10 NSaved=  10.
 NSaved=10 IEnMin=10 EnMin= -76.0299255427007     IErMin=10 ErrMin= 2.48D-08
 ErrMax= 2.48D-08  0.00D+00 EMaxC= 1.00D-01 BMatC= 2.09D-14 BMatP= 3.57D-13
 IDIUse=1 WtCom= 1.00D+00 WtEn= 0.00D+00
 Coeff-Com:  0.108D-05-0.565D-05-0.428D-04 0.197D-03-0.188D-03-0.197D-02
 Coeff-Com:  0.954D-02-0.905D-02-0.302D+00 0.130D+01
 Coeff:      0.108D-05-0.565D-05-0.428D-04 0.197D-03-0.188D-03-0.197D-02
 Coeff:      0.954D-02-0.905D-02-0.302D+00 0.130D+01
 Gap=     0.547 Goal=   None    Shift=    0.000
 RMSDP=7.94D-09 MaxDP=8.57D-08 DE=-9.66D-13 OVMax= 1.58D-07

 SCF Done:  E(RHF) =  -76.0299255427     A.U. after   10 cycles
            NFock= 10  Conv=0.79D-08     -V/T= 2.0009
 KE= 7.595951250357D+01 PE=-1.989666944610D+02 EE= 3.773623443025D+01
 Leave Link  502 at Mon Feb 20 10:16:41 2023, MaxMem=   754974720 cpu:               5.9 elap:               3.0
 (Enter /opt/cluster/programs/g16-c.01/g16/l601.exe)
 Copying SCF densities to generalized density rwf, IOpCl= 0 IROHF=0.

 **********************************************************************

            Population analysis using the SCF Density.

 **********************************************************************

 Orbital symmetries:
       Occupied  (A') (A') (A') (A') (A")
       Virtual   (A') (A') (A') (A") (A') (A') (A') (A') (A') (A")
                 (A") (A') (A') (A') (A') (A') (A") (A') (A") (A')
                 (A') (A") (A') (A") (A') (A") (A') (A') (A') (A')
                 (A') (A") (A') (A") (A') (A')
 The electronic state is 1-A'.
 Alpha  occ. eigenvalues --  -20.58273  -1.36924  -0.69003  -0.61196  -0.51339
 Alpha virt. eigenvalues --    0.03387   0.05919   0.17157   0.19827   0.22176
 Alpha virt. eigenvalues --    0.23564   0.28343   0.35464   0.37974   0.39184
 Alpha virt. eigenvalues --    0.41652   0.55256   0.63492   0.66282   0.78393
 Alpha virt. eigenvalues --    0.96440   1.11114   1.12531   1.14733   1.27636
 Alpha virt. eigenvalues --    1.43334   1.46536   1.61641   1.98654   2.03902
 Alpha virt. eigenvalues --    2.14300   2.17788   2.46093   2.63919   2.75364
 Alpha virt. eigenvalues --    3.05183   3.67520   3.69887   3.70356   3.97718
 Alpha virt. eigenvalues --    4.33684
          Condensed to atoms (all electrons):
               1          2          3
     1  O    7.634877   0.309512   0.342652
     2  H    0.309512   0.511213  -0.014373
     3  H    0.342652  -0.014373   0.578328
 Mulliken charges:
               1
     1  O   -0.287041
     2  H    0.193647
     3  H    0.093394
 Sum of Mulliken charges =   0.00000
 Mulliken charges with hydrogens summed into heavy atoms:
               1
     1  O    0.000000
 Electronic spatial extent (au):  <R**2>=             19.5302
 Charge=              0.0000 electrons
 Dipole moment (field-independent basis, Debye):
    X=             -0.0613    Y=             -2.2145    Z=              0.0000  Tot=              2.2153
 Quadrupole moment (field-independent basis, Debye-Ang):
   XX=             -4.9088   YY=             -5.8136   ZZ=             -7.5665
   XY=             -0.1922   XZ=              0.0000   YZ=             -0.0000
 Traceless Quadrupole moment (field-independent basis, Debye-Ang):
   XX=              1.1875   YY=              0.2827   ZZ=             -1.4702
   XY=             -0.1922   XZ=              0.0000   YZ=             -0.0000
 Octapole moment (field-independent basis, Debye-Ang**2):
  XXX=             -0.1665  YYY=             -1.4967  ZZZ=              0.0000  XYY=              0.1617
  XXY=             -1.2821  XXZ=              0.0000  XZZ=             -0.0622  YZZ=             -0.3185
  YYZ=              0.0000  XYZ=             -0.0000
 Hexadecapole moment (field-independent basis, Debye-Ang**3):
 XXXX=             -6.4013 YYYY=             -7.3637 ZZZZ=             -6.7262 XXXY=              0.0757
 XXXZ=             -0.0000 YYYX=             -0.0209 YYYZ=              0.0000 ZZZX=             -0.0000
 ZZZY=              0.0000 XXYY=             -1.8354 XXZZ=             -2.3802 YYZZ=             -2.4415
 XXYZ=             -0.0000 YYXZ=              0.0000 ZZXY=              0.0672
 N-N= 9.241021984503D+00 E-N=-1.989666943361D+02  KE= 7.595951250357D+01
 Symmetry A'   KE= 7.149996022764D+01
 Symmetry A"   KE= 4.459552275934D+00
 No NMR shielding tensors so no spin-rotation constants.
 Leave Link  601 at Mon Feb 20 10:16:42 2023, MaxMem=   754974720 cpu:               1.4 elap:               0.7
 (Enter /opt/cluster/programs/g16-c.01/g16/l9999.exe)
 Unable to Open any file for archive entry.
 1\1\GINC-NODE105\SP\RHF\Aug-CC-pVDZ\H2O1\BOITTIER\20-Feb-2023\0\\#P HF
 /aug-cc-pVDZ scf(maxcycle=200)\\Gaussian input\\0,1\O,0,0.,0.11751,0.\
 H,0,0.7973622306,-0.5007896629,0.\H,0,-0.5626457724,-0.596430288,0.\\V
 ersion=ES64L-G16RevC.01\State=1-A'\HF=-76.0299255\RMSD=7.943e-09\Dipol
 e=0.1274079,-0.8622185,0.\Quadrupole=0.9114784,0.1815668,-1.0930452,-0
 .0193653,0.,0.\PG=CS [SG(H2O1)]\\@
 The archive entry for this job was punched.


 The lyf so short, the craft so long to lerne.
                             -- Chaucer
 Job cpu time:       0 days  0 hours  0 minutes 11.9 seconds.
 Elapsed time:       0 days  0 hours  0 minutes  5.7 seconds.
 File lengths (MBytes):  RWF=      6 Int=      0 D2E=      0 Chk=      1 Scr=      1
 Normal termination of Gaussian 16 at Mon Feb 20 10:16:42 2023.
