 Entering Gaussian System, Link 0=/opt/cluster/programs/g16-c.01/g16/g16
 Input=/scratch/boittier/jobs/tmp.7312136/gaussian_127_water_hf_adz.com
 Output=/scratch/boittier/jobs/tmp.7312136/gaussian_127_water_hf_adz.out
 Initial command:
 /opt/cluster/programs/g16-c.01/g16/l1.exe "/scratch/boittier/jobs/tmp.7312136/Gau-94911.inp" -scrdir="/scratch/boittier/jobs/tmp.7312136/"
 Entering Link 1 = /opt/cluster/programs/g16-c.01/g16/l1.exe PID=     94912.
  
 Copyright (c) 1988-2019, Gaussian, Inc.  All Rights Reserved.
  
 This is part of the Gaussian(R) 16 program.  It is based on
 the Gaussian(R) 09 system (copyright 2009, Gaussian, Inc.),
 the Gaussian(R) 03 system (copyright 2003, Gaussian, Inc.),
 the Gaussian(R) 98 system (copyright 1998, Gaussian, Inc.),
 the Gaussian(R) 94 system (copyright 1995, Gaussian, Inc.),
 the Gaussian 92(TM) system (copyright 1992, Gaussian, Inc.),
 the Gaussian 90(TM) system (copyright 1990, Gaussian, Inc.),
 the Gaussian 88(TM) system (copyright 1988, Gaussian, Inc.),
 the Gaussian 86(TM) system (copyright 1986, Carnegie Mellon
 University), and the Gaussian 82(TM) system (copyright 1983,
 Carnegie Mellon University). Gaussian is a federally registered
 trademark of Gaussian, Inc.
  
 This software contains proprietary and confidential information,
 including trade secrets, belonging to Gaussian, Inc.
  
 This software is provided under written license and may be
 used, copied, transmitted, or stored only in accord with that
 written license.
  
 The following legend is applicable only to US Government
 contracts under FAR:
  
                    RESTRICTED RIGHTS LEGEND
  
 Use, reproduction and disclosure by the US Government is
 subject to restrictions as set forth in subparagraphs (a)
 and (c) of the Commercial Computer Software - Restricted
 Rights clause in FAR 52.227-19.
  
 Gaussian, Inc.
 340 Quinnipiac St., Bldg. 40, Wallingford CT 06492
  
  
 ---------------------------------------------------------------
 Warning -- This program may not be used in any manner that
 competes with the business of Gaussian, Inc. or will provide
 assistance to any competitor of Gaussian, Inc.  The licensee
 of this program is prohibited from giving any competitor of
 Gaussian, Inc. access to this program.  By using this program,
 the user acknowledges that Gaussian, Inc. is engaged in the
 business of creating and licensing software in the field of
 computational chemistry and represents and warrants to the
 licensee that it is not a competitor of Gaussian, Inc. and that
 it will not use this program in any manner prohibited above.
 ---------------------------------------------------------------
  

 Cite this work as:
 Gaussian 16, Revision C.01,
 M. J. Frisch, G. W. Trucks, H. B. Schlegel, G. E. Scuseria, 
 M. A. Robb, J. R. Cheeseman, G. Scalmani, V. Barone, 
 G. A. Petersson, H. Nakatsuji, X. Li, M. Caricato, A. V. Marenich, 
 J. Bloino, B. G. Janesko, R. Gomperts, B. Mennucci, H. P. Hratchian, 
 J. V. Ortiz, A. F. Izmaylov, J. L. Sonnenberg, D. Williams-Young, 
 F. Ding, F. Lipparini, F. Egidi, J. Goings, B. Peng, A. Petrone, 
 T. Henderson, D. Ranasinghe, V. G. Zakrzewski, J. Gao, N. Rega, 
 G. Zheng, W. Liang, M. Hada, M. Ehara, K. Toyota, R. Fukuda, 
 J. Hasegawa, M. Ishida, T. Nakajima, Y. Honda, O. Kitao, H. Nakai, 
 T. Vreven, K. Throssell, J. A. Montgomery, Jr., J. E. Peralta, 
 F. Ogliaro, M. J. Bearpark, J. J. Heyd, E. N. Brothers, K. N. Kudin, 
 V. N. Staroverov, T. A. Keith, R. Kobayashi, J. Normand, 
 K. Raghavachari, A. P. Rendell, J. C. Burant, S. S. Iyengar, 
 J. Tomasi, M. Cossi, J. M. Millam, M. Klene, C. Adamo, R. Cammi, 
 J. W. Ochterski, R. L. Martin, K. Morokuma, O. Farkas, 
 J. B. Foresman, and D. J. Fox, Gaussian, Inc., Wallingford CT, 2019.
 
 ******************************************
 Gaussian 16:  ES64L-G16RevC.01  3-Jul-2019
                20-Feb-2023 
 ******************************************
 %nproc=4
 Will use up to    4 processors via shared memory.
 %mem=5760MB
 %chk=gaussian_127_water_hf_adz.chk
 -----------------------------------
 #P HF/aug-cc-pVDZ scf(maxcycle=200)
 -----------------------------------
 1/38=1,172=1/1;
 2/12=2,17=6,18=5,40=1/2;
 3/5=16,7=10,11=9,25=1,30=1/1,2,3;
 4//1;
 5/5=2,7=200,38=5/2;
 6/7=2,8=2,9=2,10=2,28=1/1;
 99/5=1,9=1/99;
 Leave Link    1 at Mon Feb 20 10:28:46 2023, MaxMem=   754974720 cpu:               0.1 elap:               0.0
 (Enter /opt/cluster/programs/g16-c.01/g16/l101.exe)
 --------------
 Gaussian input
 --------------
 Symbolic Z-matrix:
 Charge =  0 Multiplicity = 1
 O                     0.        0.11751   0. 
 H                     0.79736  -0.50079   0. 
 H                    -0.65653  -0.51118   0. 
 
 ITRead=  0  0  0
 MicOpt= -1 -1 -1
 NAtoms=      3 NQM=        3 NQMF=       0 NMMI=      0 NMMIF=      0
                NMic=       0 NMicF=      0.
                    Isotopes and Nuclear Properties:
 (Nuclear quadrupole moments (NQMom) in fm**2, nuclear magnetic moments (NMagM)
  in nuclear magnetons)

  Atom         1           2           3
 IAtWgt=          16           1           1
 AtmWgt=  15.9949146   1.0078250   1.0078250
 NucSpn=           0           1           1
 AtZEff=  -0.0000000  -0.0000000  -0.0000000
 NQMom=    0.0000000   0.0000000   0.0000000
 NMagM=    0.0000000   2.7928460   2.7928460
 AtZNuc=   8.0000000   1.0000000   1.0000000
 Leave Link  101 at Mon Feb 20 10:28:46 2023, MaxMem=   754974720 cpu:               0.7 elap:               0.2
 (Enter /opt/cluster/programs/g16-c.01/g16/l202.exe)
                          Input orientation:                          
 ---------------------------------------------------------------------
 Center     Atomic      Atomic             Coordinates (Angstroms)
 Number     Number       Type             X           Y           Z
 ---------------------------------------------------------------------
      1          8           0        0.000000    0.117510    0.000000
      2          1           0        0.797362   -0.500790    0.000000
      3          1           0       -0.656531   -0.511177    0.000000
 ---------------------------------------------------------------------
                    Distance matrix (angstroms):
                    1          2          3
     1  O    0.000000
     2  H    1.009000   0.000000
     3  H    0.909000   1.453931   0.000000
 Stoichiometry    H2O
 Framework group  CS[SG(H2O)]
 Deg. of freedom     3
 Full point group                 CS      NOp   2
 Largest Abelian subgroup         CS      NOp   2
 Largest concise Abelian subgroup C1      NOp   1
                         Standard orientation:                         
 ---------------------------------------------------------------------
 Center     Atomic      Atomic             Coordinates (Angstroms)
 Number     Number       Type             X           Y           Z
 ---------------------------------------------------------------------
      1          8           0        0.000000    0.125491    0.000000
      2          1           0        0.722938   -0.578385   -0.000000
      3          1           0       -0.722938   -0.425546   -0.000000
 ---------------------------------------------------------------------
 Rotational constants (GHZ):         739.8884259         464.9580004         285.5277117
 Leave Link  202 at Mon Feb 20 10:28:46 2023, MaxMem=   754974720 cpu:               0.0 elap:               0.0
 (Enter /opt/cluster/programs/g16-c.01/g16/l301.exe)
 Standard basis: Aug-CC-pVDZ (5D, 7F)
 Ernie: Thresh=  0.10000D-02 Tol=  0.10000D-05 Strict=F.
 Ernie:  2 primitive shells out of 39 were deleted.
 There are    32 symmetry adapted cartesian basis functions of A'  symmetry.
 There are    11 symmetry adapted cartesian basis functions of A"  symmetry.
 There are    30 symmetry adapted basis functions of A'  symmetry.
 There are    11 symmetry adapted basis functions of A"  symmetry.
    41 basis functions,    65 primitive gaussians,    43 cartesian basis functions
     5 alpha electrons        5 beta electrons
       nuclear repulsion energy         9.2168450984 Hartrees.
 IExCor=    0 DFT=F Ex=HF Corr=None ExCW=0 ScaHFX=  1.000000
 ScaDFX=  1.000000  1.000000  1.000000  1.000000 ScalE2=  1.000000  1.000000
 IRadAn=      5 IRanWt=     -1 IRanGd=            0 ICorTp=0 IEmpDi=  4
 NAtoms=    3 NActive=    3 NUniq=    3 SFac= 1.00D+00 NAtFMM=   60 NAOKFM=F Big=F
 Integral buffers will be    131072 words long.
 Raffenetti 1 integral format.
 Two-electron integral symmetry is turned on.
 Leave Link  301 at Mon Feb 20 10:28:46 2023, MaxMem=   754974720 cpu:               0.2 elap:               0.0
 (Enter /opt/cluster/programs/g16-c.01/g16/l302.exe)
 NPDir=0 NMtPBC=     1 NCelOv=     1 NCel=       1 NClECP=     1 NCelD=      1
         NCelK=      1 NCelE2=     1 NClLst=     1 CellRange=     0.0.
 One-electron integrals computed using PRISM.
 One-electron integral symmetry used in STVInt
 NBasis=    41 RedAO= T EigKep=  2.33D-03  NBF=    30    11
 NBsUse=    41 1.00D-06 EigRej= -1.00D+00 NBFU=    30    11
 Leave Link  302 at Mon Feb 20 10:28:46 2023, MaxMem=   754974720 cpu:               0.4 elap:               0.1
 (Enter /opt/cluster/programs/g16-c.01/g16/l303.exe)
 DipDrv:  MaxL=1.
 Leave Link  303 at Mon Feb 20 10:28:46 2023, MaxMem=   754974720 cpu:               0.1 elap:               0.0
 (Enter /opt/cluster/programs/g16-c.01/g16/l401.exe)
 ExpMin= 2.97D-02 ExpMax= 1.17D+04 ExpMxC= 4.01D+02 IAcc=3 IRadAn=         5 AccDes= 0.00D+00
 Harris functional with IExCor=  205 and IRadAn=       5 diagonalized for initial guess.
 HarFok:  IExCor=  205 AccDes= 0.00D+00 IRadAn=         5 IDoV= 1 UseB2=F ITyADJ=14
 ICtDFT=  3500011 ScaDFX=  1.000000  1.000000  1.000000  1.000000
 FoFCou: FMM=F IPFlag=           0 FMFlag=      100000 FMFlg1=           0
         NFxFlg=           0 DoJE=T BraDBF=F KetDBF=T FulRan=T
         wScrn=  0.000000 ICntrl=       500 IOpCl=  0 I1Cent=   200000004 NGrid=           0
         NMat0=    1 NMatS0=      1 NMatT0=    0 NMatD0=    1 NMtDS0=    0 NMtDT0=    0
 Petite list used in FoFCou.
 Harris En= -76.1195474505592    
 JPrj=0 DoOrth=F DoCkMO=F.
 Initial guess orbital symmetries:
       Occupied  (A') (A') (A') (A') (A")
       Virtual   (A') (A') (A') (A") (A') (A') (A') (A') (A') (A")
                 (A") (A') (A') (A') (A') (A') (A") (A') (A") (A')
                 (A") (A') (A') (A") (A') (A") (A') (A') (A') (A')
                 (A') (A") (A') (A") (A') (A')
 The electronic state of the initial guess is 1-A'.
 Leave Link  401 at Mon Feb 20 10:28:46 2023, MaxMem=   754974720 cpu:               0.6 elap:               0.1
 (Enter /opt/cluster/programs/g16-c.01/g16/l502.exe)
 Keep R1 ints in memory in symmetry-blocked form, NReq=1210682.
 FoFCou: FMM=F IPFlag=           0 FMFlag=           0 FMFlg1=           0
         NFxFlg=           0 DoJE=F BraDBF=F KetDBF=F FulRan=T
         wScrn=  0.000000 ICntrl=       600 IOpCl=  0 I1Cent=           0 NGrid=           0
         NMat0=    1 NMatS0=    861 NMatT0=    0 NMatD0=    1 NMtDS0=    0 NMtDT0=    0
 Petite list used in FoFCou.
 Closed shell SCF:
 Using DIIS extrapolation, IDIIS=  1040.
 NGot=   754974720 LenX=   754771907 LenY=   754769617
 Requested convergence on RMS density matrix=1.00D-08 within 200 cycles.
 Requested convergence on MAX density matrix=1.00D-06.
 Requested convergence on             energy=1.00D-06.
 No special actions if energy rises.

 Cycle   1  Pass 1  IDiag  1:
 E= -75.9574978674316    
 DIIS: error= 5.07D-02 at cycle   1 NSaved=   1.
 NSaved= 1 IEnMin= 1 EnMin= -75.9574978674316     IErMin= 1 ErrMin= 5.07D-02
 ErrMax= 5.07D-02  0.00D+00 EMaxC= 1.00D-01 BMatC= 1.18D-01 BMatP= 1.18D-01
 IDIUse=3 WtCom= 4.93D-01 WtEn= 5.07D-01
 Coeff-Com:  0.100D+01
 Coeff-En:   0.100D+01
 Coeff:      0.100D+01
 Gap=     0.460 Goal=   None    Shift=    0.000
 GapD=    0.460 DampG=2.000 DampE=0.500 DampFc=1.0000 IDamp=-1.
 RMSDP=6.34D-03 MaxDP=1.17D-01              OVMax= 1.21D-01

 Cycle   2  Pass 1  IDiag  1:
 E= -76.0022197761638     Delta-E=       -0.044721908732 Rises=F Damp=F
 DIIS: error= 4.03D-02 at cycle   2 NSaved=   2.
 NSaved= 2 IEnMin= 2 EnMin= -76.0022197761638     IErMin= 2 ErrMin= 4.03D-02
 ErrMax= 4.03D-02  0.00D+00 EMaxC= 1.00D-01 BMatC= 4.62D-02 BMatP= 1.18D-01
 IDIUse=3 WtCom= 5.97D-01 WtEn= 4.03D-01
 Coeff-Com:  0.375D+00 0.625D+00
 Coeff-En:   0.213D+00 0.787D+00
 Coeff:      0.310D+00 0.690D+00
 Gap=     0.563 Goal=   None    Shift=    0.000
 RMSDP=2.98D-03 MaxDP=5.48D-02 DE=-4.47D-02 OVMax= 5.93D-02

 Cycle   3  Pass 1  IDiag  1:
 E= -76.0340056039739     Delta-E=       -0.031785827810 Rises=F Damp=F
 DIIS: error= 4.62D-03 at cycle   3 NSaved=   3.
 NSaved= 3 IEnMin= 3 EnMin= -76.0340056039739     IErMin= 3 ErrMin= 4.62D-03
 ErrMax= 4.62D-03  0.00D+00 EMaxC= 1.00D-01 BMatC= 1.17D-03 BMatP= 4.62D-02
 IDIUse=3 WtCom= 9.54D-01 WtEn= 4.62D-02
 Coeff-Com: -0.385D-01 0.916D-01 0.947D+00
 Coeff-En:   0.000D+00 0.000D+00 0.100D+01
 Coeff:     -0.367D-01 0.873D-01 0.949D+00
 Gap=     0.544 Goal=   None    Shift=    0.000
 RMSDP=4.74D-04 MaxDP=8.26D-03 DE=-3.18D-02 OVMax= 9.37D-03

 Cycle   4  Pass 1  IDiag  1:
 E= -76.0348954018564     Delta-E=       -0.000889797883 Rises=F Damp=F
 DIIS: error= 6.73D-04 at cycle   4 NSaved=   4.
 NSaved= 4 IEnMin= 4 EnMin= -76.0348954018564     IErMin= 4 ErrMin= 6.73D-04
 ErrMax= 6.73D-04  0.00D+00 EMaxC= 1.00D-01 BMatC= 7.94D-06 BMatP= 1.17D-03
 IDIUse=3 WtCom= 9.93D-01 WtEn= 6.73D-03
 Coeff-Com:  0.961D-02-0.444D-01-0.344D+00 0.138D+01
 Coeff-En:   0.000D+00 0.000D+00 0.000D+00 0.100D+01
 Coeff:      0.955D-02-0.441D-01-0.341D+00 0.138D+01
 Gap=     0.545 Goal=   None    Shift=    0.000
 RMSDP=1.15D-04 MaxDP=1.22D-03 DE=-8.90D-04 OVMax= 2.27D-03

 Cycle   5  Pass 1  IDiag  1:
 E= -76.0349151554055     Delta-E=       -0.000019753549 Rises=F Damp=F
 DIIS: error= 1.77D-04 at cycle   5 NSaved=   5.
 NSaved= 5 IEnMin= 5 EnMin= -76.0349151554055     IErMin= 5 ErrMin= 1.77D-04
 ErrMax= 1.77D-04  0.00D+00 EMaxC= 1.00D-01 BMatC= 3.34D-07 BMatP= 7.94D-06
 IDIUse=3 WtCom= 9.98D-01 WtEn= 1.77D-03
 Coeff-Com: -0.457D-03 0.499D-02 0.363D-01-0.312D+00 0.127D+01
 Coeff-En:   0.000D+00 0.000D+00 0.000D+00 0.000D+00 0.100D+01
 Coeff:     -0.456D-03 0.498D-02 0.362D-01-0.312D+00 0.127D+01
 Gap=     0.546 Goal=   None    Shift=    0.000
 RMSDP=2.61D-05 MaxDP=3.95D-04 DE=-1.98D-05 OVMax= 5.41D-04

 Cycle   6  Pass 1  IDiag  1:
 E= -76.0349161391844     Delta-E=       -0.000000983779 Rises=F Damp=F
 DIIS: error= 3.12D-05 at cycle   6 NSaved=   6.
 NSaved= 6 IEnMin= 6 EnMin= -76.0349161391844     IErMin= 6 ErrMin= 3.12D-05
 ErrMax= 3.12D-05  0.00D+00 EMaxC= 1.00D-01 BMatC= 1.22D-08 BMatP= 3.34D-07
 IDIUse=1 WtCom= 1.00D+00 WtEn= 0.00D+00
 Coeff-Com: -0.366D-03 0.137D-02 0.106D-01-0.210D-01-0.200D+00 0.121D+01
 Coeff:     -0.366D-03 0.137D-02 0.106D-01-0.210D-01-0.200D+00 0.121D+01
 Gap=     0.546 Goal=   None    Shift=    0.000
 RMSDP=4.59D-06 MaxDP=8.69D-05 DE=-9.84D-07 OVMax= 1.15D-04

 Cycle   7  Pass 1  IDiag  1:
 E= -76.0349161758323     Delta-E=       -0.000000036648 Rises=F Damp=F
 DIIS: error= 5.92D-06 at cycle   7 NSaved=   7.
 NSaved= 7 IEnMin= 7 EnMin= -76.0349161758323     IErMin= 7 ErrMin= 5.92D-06
 ErrMax= 5.92D-06  0.00D+00 EMaxC= 1.00D-01 BMatC= 6.02D-10 BMatP= 1.22D-08
 IDIUse=1 WtCom= 1.00D+00 WtEn= 0.00D+00
 Coeff-Com:  0.133D-03-0.665D-03-0.531D-02 0.245D-01-0.127D-01-0.309D+00
 Coeff-Com:  0.130D+01
 Coeff:      0.133D-03-0.665D-03-0.531D-02 0.245D-01-0.127D-01-0.309D+00
 Coeff:      0.130D+01
 Gap=     0.546 Goal=   None    Shift=    0.000
 RMSDP=9.14D-07 MaxDP=1.53D-05 DE=-3.66D-08 OVMax= 2.45D-05

 Cycle   8  Pass 1  IDiag  1:
 E= -76.0349161772871     Delta-E=       -0.000000001455 Rises=F Damp=F
 DIIS: error= 6.99D-07 at cycle   8 NSaved=   8.
 NSaved= 8 IEnMin= 8 EnMin= -76.0349161772871     IErMin= 8 ErrMin= 6.99D-07
 ErrMax= 6.99D-07  0.00D+00 EMaxC= 1.00D-01 BMatC= 1.59D-11 BMatP= 6.02D-10
 IDIUse=1 WtCom= 1.00D+00 WtEn= 0.00D+00
 Coeff-Com: -0.199D-04 0.114D-03 0.961D-03-0.549D-02 0.959D-02 0.429D-01
 Coeff-Com: -0.353D+00 0.131D+01
 Coeff:     -0.199D-04 0.114D-03 0.961D-03-0.549D-02 0.959D-02 0.429D-01
 Coeff:     -0.353D+00 0.131D+01
 Gap=     0.546 Goal=   None    Shift=    0.000
 RMSDP=1.96D-07 MaxDP=2.47D-06 DE=-1.45D-09 OVMax= 3.80D-06

 Cycle   9  Pass 1  IDiag  1:
 E= -76.0349161773278     Delta-E=       -0.000000000041 Rises=F Damp=F
 DIIS: error= 1.15D-07 at cycle   9 NSaved=   9.
 NSaved= 9 IEnMin= 9 EnMin= -76.0349161773278     IErMin= 9 ErrMin= 1.15D-07
 ErrMax= 1.15D-07  0.00D+00 EMaxC= 1.00D-01 BMatC= 4.24D-13 BMatP= 1.59D-11
 IDIUse=1 WtCom= 1.00D+00 WtEn= 0.00D+00
 Coeff-Com: -0.267D-05 0.124D-04 0.856D-04-0.247D-03-0.716D-03 0.595D-02
 Coeff-Com: -0.710D-03-0.155D+00 0.115D+01
 Coeff:     -0.267D-05 0.124D-04 0.856D-04-0.247D-03-0.716D-03 0.595D-02
 Coeff:     -0.710D-03-0.155D+00 0.115D+01
 Gap=     0.546 Goal=   None    Shift=    0.000
 RMSDP=3.17D-08 MaxDP=3.43D-07 DE=-4.08D-11 OVMax= 5.20D-07

 Cycle  10  Pass 1  IDiag  1:
 E= -76.0349161773289     Delta-E=       -0.000000000001 Rises=F Damp=F
 DIIS: error= 2.79D-08 at cycle  10 NSaved=  10.
 NSaved=10 IEnMin=10 EnMin= -76.0349161773289     IErMin=10 ErrMin= 2.79D-08
 ErrMax= 2.79D-08  0.00D+00 EMaxC= 1.00D-01 BMatC= 2.73D-14 BMatP= 4.24D-13
 IDIUse=1 WtCom= 1.00D+00 WtEn= 0.00D+00
 Coeff-Com:  0.142D-05-0.750D-05-0.587D-04 0.281D-03-0.190D-03-0.322D-02
 Coeff-Com:  0.153D-01-0.217D-01-0.312D+00 0.132D+01
 Coeff:      0.142D-05-0.750D-05-0.587D-04 0.281D-03-0.190D-03-0.322D-02
 Coeff:      0.153D-01-0.217D-01-0.312D+00 0.132D+01
 Gap=     0.546 Goal=   None    Shift=    0.000
 RMSDP=9.13D-09 MaxDP=9.52D-08 DE=-1.05D-12 OVMax= 1.82D-07

 SCF Done:  E(RHF) =  -76.0349161773     A.U. after   10 cycles
            NFock= 10  Conv=0.91D-08     -V/T= 2.0012
 KE= 7.594739939638D+01 PE=-1.989370270292D+02 EE= 3.773786635705D+01
 Leave Link  502 at Mon Feb 20 10:28:46 2023, MaxMem=   754974720 cpu:               0.6 elap:               0.1
 (Enter /opt/cluster/programs/g16-c.01/g16/l601.exe)
 Copying SCF densities to generalized density rwf, IOpCl= 0 IROHF=0.

 **********************************************************************

            Population analysis using the SCF Density.

 **********************************************************************

 Orbital symmetries:
       Occupied  (A') (A') (A') (A') (A")
       Virtual   (A') (A') (A') (A") (A') (A') (A') (A') (A") (A')
                 (A") (A') (A') (A') (A') (A') (A") (A') (A") (A')
                 (A') (A") (A') (A") (A') (A") (A') (A') (A') (A')
                 (A') (A") (A') (A") (A') (A')
 The electronic state is 1-A'.
 Alpha  occ. eigenvalues --  -20.57966  -1.36270  -0.70706  -0.59629  -0.51124
 Alpha virt. eigenvalues --    0.03471   0.05848   0.17286   0.19731   0.22167
 Alpha virt. eigenvalues --    0.23342   0.28589   0.34226   0.38796   0.39318
 Alpha virt. eigenvalues --    0.42634   0.54508   0.63758   0.66356   0.79866
 Alpha virt. eigenvalues --    0.95182   1.10626   1.12297   1.14779   1.28409
 Alpha virt. eigenvalues --    1.44816   1.47563   1.60290   1.99207   2.01868
 Alpha virt. eigenvalues --    2.13423   2.29490   2.43621   2.64292   2.75244
 Alpha virt. eigenvalues --    3.01437   3.67316   3.69891   3.70559   3.97796
 Alpha virt. eigenvalues --    4.34296
          Condensed to atoms (all electrons):
               1          2          3
     1  O    7.624123   0.317350   0.347991
     2  H    0.317350   0.511945  -0.027459
     3  H    0.347991  -0.027459   0.588168
 Mulliken charges:
               1
     1  O   -0.289464
     2  H    0.198165
     3  H    0.091300
 Sum of Mulliken charges =   0.00000
 Mulliken charges with hydrogens summed into heavy atoms:
               1
     1  O    0.000000
 Electronic spatial extent (au):  <R**2>=             19.5481
 Charge=              0.0000 electrons
 Dipole moment (field-independent basis, Debye):
    X=             -0.0535    Y=             -2.0969    Z=             -0.0000  Tot=              2.0976
 Quadrupole moment (field-independent basis, Debye-Ang):
   XX=             -4.5588   YY=             -6.0522   ZZ=             -7.5794
   XY=             -0.2371   XZ=             -0.0000   YZ=              0.0000
 Traceless Quadrupole moment (field-independent basis, Debye-Ang):
   XX=              1.5047   YY=              0.0112   ZZ=             -1.5159
   XY=             -0.2371   XZ=             -0.0000   YZ=              0.0000
 Octapole moment (field-independent basis, Debye-Ang**2):
  XXX=             -0.1534  YYY=             -1.3396  ZZZ=             -0.0000  XYY=              0.1793
  XXY=             -1.3519  XXZ=             -0.0000  XZZ=             -0.0621  YZZ=             -0.3027
  YYZ=             -0.0000  XYZ=              0.0000
 Hexadecapole moment (field-independent basis, Debye-Ang**3):
 XXXX=             -6.2028 YYYY=             -7.3580 ZZZZ=             -6.7751 XXXY=              0.0351
 XXXZ=              0.0000 YYYX=             -0.0154 YYYZ=             -0.0000 ZZZX=              0.0000
 ZZZY=             -0.0000 XXYY=             -1.8534 XXZZ=             -2.4204 YYZZ=             -2.4284
 XXYZ=              0.0000 YYXZ=             -0.0000 ZZXY=              0.0688
 N-N= 9.216845098411D+00 E-N=-1.989370267596D+02  KE= 7.594739939638D+01
 Symmetry A'   KE= 7.149441805823D+01
 Symmetry A"   KE= 4.452981338147D+00
 No NMR shielding tensors so no spin-rotation constants.
 Leave Link  601 at Mon Feb 20 10:28:47 2023, MaxMem=   754974720 cpu:               0.4 elap:               0.1
 (Enter /opt/cluster/programs/g16-c.01/g16/l9999.exe)
 Unable to Open any file for archive entry.
 1\1\GINC-NODE86\SP\RHF\Aug-CC-pVDZ\H2O1\BOITTIER\20-Feb-2023\0\\#P HF/
 aug-cc-pVDZ scf(maxcycle=200)\\Gaussian input\\0,1\O,0,0.,0.11751,0.\H
 ,0,0.7973622306,-0.5007896629,0.\H,0,-0.6565314262,-0.5111771133,0.\\V
 ersion=ES64L-G16RevC.01\State=1-A'\HF=-76.0349162\RMSD=9.132e-09\Dipol
 e=0.0716517,-0.8221502,0.\Quadrupole=1.1440196,-0.0169779,-1.1270417,-
 0.0480492,0.,0.\PG=CS [SG(H2O1)]\\@
 The archive entry for this job was punched.


 IF YOU PERCEIVE THAT THERE ARE FOUR POSSIBLE WAYS IN
 WHICH A PROCEDURE CAN GO WRONG AND CIRCUMVENT THESE, 
 THEN A FIFTH WAY WILL DEVELOP.

                              -- MURPHY'S TWELFTH LAW
 Job cpu time:       0 days  0 hours  0 minutes  3.3 seconds.
 Elapsed time:       0 days  0 hours  0 minutes  0.8 seconds.
 File lengths (MBytes):  RWF=      6 Int=      0 D2E=      0 Chk=      1 Scr=      1
 Normal termination of Gaussian 16 at Mon Feb 20 10:28:47 2023.
