 Entering Gaussian System, Link 0=/opt/cluster/programs/g16-c.01/g16/g16
 Input=/scratch/boittier/jobs/tmp.7261849/gaussian_171_water_ccsdt_atz.com
 Output=/scratch/boittier/jobs/tmp.7261849/gaussian_171_water_ccsdt_atz.out
 Initial command:
 /opt/cluster/programs/g16-c.01/g16/l1.exe "/scratch/boittier/jobs/tmp.7261849/Gau-50240.inp" -scrdir="/scratch/boittier/jobs/tmp.7261849/"
 Entering Link 1 = /opt/cluster/programs/g16-c.01/g16/l1.exe PID=     50241.
  
 Copyright (c) 1988-2019, Gaussian, Inc.  All Rights Reserved.
  
 This is part of the Gaussian(R) 16 program.  It is based on
 the Gaussian(R) 09 system (copyright 2009, Gaussian, Inc.),
 the Gaussian(R) 03 system (copyright 2003, Gaussian, Inc.),
 the Gaussian(R) 98 system (copyright 1998, Gaussian, Inc.),
 the Gaussian(R) 94 system (copyright 1995, Gaussian, Inc.),
 the Gaussian 92(TM) system (copyright 1992, Gaussian, Inc.),
 the Gaussian 90(TM) system (copyright 1990, Gaussian, Inc.),
 the Gaussian 88(TM) system (copyright 1988, Gaussian, Inc.),
 the Gaussian 86(TM) system (copyright 1986, Carnegie Mellon
 University), and the Gaussian 82(TM) system (copyright 1983,
 Carnegie Mellon University). Gaussian is a federally registered
 trademark of Gaussian, Inc.
  
 This software contains proprietary and confidential information,
 including trade secrets, belonging to Gaussian, Inc.
  
 This software is provided under written license and may be
 used, copied, transmitted, or stored only in accord with that
 written license.
  
 The following legend is applicable only to US Government
 contracts under FAR:
  
                    RESTRICTED RIGHTS LEGEND
  
 Use, reproduction and disclosure by the US Government is
 subject to restrictions as set forth in subparagraphs (a)
 and (c) of the Commercial Computer Software - Restricted
 Rights clause in FAR 52.227-19.
  
 Gaussian, Inc.
 340 Quinnipiac St., Bldg. 40, Wallingford CT 06492
  
  
 ---------------------------------------------------------------
 Warning -- This program may not be used in any manner that
 competes with the business of Gaussian, Inc. or will provide
 assistance to any competitor of Gaussian, Inc.  The licensee
 of this program is prohibited from giving any competitor of
 Gaussian, Inc. access to this program.  By using this program,
 the user acknowledges that Gaussian, Inc. is engaged in the
 business of creating and licensing software in the field of
 computational chemistry and represents and warrants to the
 licensee that it is not a competitor of Gaussian, Inc. and that
 it will not use this program in any manner prohibited above.
 ---------------------------------------------------------------
  

 Cite this work as:
 Gaussian 16, Revision C.01,
 M. J. Frisch, G. W. Trucks, H. B. Schlegel, G. E. Scuseria, 
 M. A. Robb, J. R. Cheeseman, G. Scalmani, V. Barone, 
 G. A. Petersson, H. Nakatsuji, X. Li, M. Caricato, A. V. Marenich, 
 J. Bloino, B. G. Janesko, R. Gomperts, B. Mennucci, H. P. Hratchian, 
 J. V. Ortiz, A. F. Izmaylov, J. L. Sonnenberg, D. Williams-Young, 
 F. Ding, F. Lipparini, F. Egidi, J. Goings, B. Peng, A. Petrone, 
 T. Henderson, D. Ranasinghe, V. G. Zakrzewski, J. Gao, N. Rega, 
 G. Zheng, W. Liang, M. Hada, M. Ehara, K. Toyota, R. Fukuda, 
 J. Hasegawa, M. Ishida, T. Nakajima, Y. Honda, O. Kitao, H. Nakai, 
 T. Vreven, K. Throssell, J. A. Montgomery, Jr., J. E. Peralta, 
 F. Ogliaro, M. J. Bearpark, J. J. Heyd, E. N. Brothers, K. N. Kudin, 
 V. N. Staroverov, T. A. Keith, R. Kobayashi, J. Normand, 
 K. Raghavachari, A. P. Rendell, J. C. Burant, S. S. Iyengar, 
 J. Tomasi, M. Cossi, J. M. Millam, M. Klene, C. Adamo, R. Cammi, 
 J. W. Ochterski, R. L. Martin, K. Morokuma, O. Farkas, 
 J. B. Foresman, and D. J. Fox, Gaussian, Inc., Wallingford CT, 2019.
 
 ******************************************
 Gaussian 16:  ES64L-G16RevC.01  3-Jul-2019
                 8-Feb-2023 
 ******************************************
 %nproc=4
 Will use up to    4 processors via shared memory.
 %mem=5760MB
 %chk=gaussian_171_water_ccsdt_atz.chk
 ----------------------------------------
 #P CCSD(T)/aug-cc-pVTZ scf(maxcycle=200)
 ----------------------------------------
 1/38=1,172=1/1;
 2/12=2,17=6,18=5,40=1/2;
 3/5=16,6=1,7=10,11=9,25=1,30=1/1,2,3;
 4//1;
 5/5=2,7=200,38=5/2;
 8/6=4,9=120000,10=1/1,4;
 9/5=7,14=2/13;
 6/7=2,8=2,9=2,10=2/1;
 99/5=1,9=1/99;
 Leave Link    1 at Wed Feb  8 13:57:46 2023, MaxMem=   754974720 cpu:               0.1 elap:               0.1
 (Enter /opt/cluster/programs/g16-c.01/g16/l101.exe)
 --------------
 Gaussian input
 --------------
 Symbolic Z-matrix:
 Charge =  0 Multiplicity = 1
 O                     0.        0.11751   0. 
 H                     0.79736  -0.50079   0. 
 H                    -0.81879  -0.47212   0. 
 
 ITRead=  0  0  0
 MicOpt= -1 -1 -1
 NAtoms=      3 NQM=        3 NQMF=       0 NMMI=      0 NMMIF=      0
                NMic=       0 NMicF=      0.
                    Isotopes and Nuclear Properties:
 (Nuclear quadrupole moments (NQMom) in fm**2, nuclear magnetic moments (NMagM)
  in nuclear magnetons)

  Atom         1           2           3
 IAtWgt=          16           1           1
 AtmWgt=  15.9949146   1.0078250   1.0078250
 NucSpn=           0           1           1
 AtZEff=  -0.0000000  -0.0000000  -0.0000000
 NQMom=    0.0000000   0.0000000   0.0000000
 NMagM=    0.0000000   2.7928460   2.7928460
 AtZNuc=   8.0000000   1.0000000   1.0000000
 Leave Link  101 at Wed Feb  8 13:57:46 2023, MaxMem=   754974720 cpu:               0.4 elap:               0.2
 (Enter /opt/cluster/programs/g16-c.01/g16/l202.exe)
                          Input orientation:                          
 ---------------------------------------------------------------------
 Center     Atomic      Atomic             Coordinates (Angstroms)
 Number     Number       Type             X           Y           Z
 ---------------------------------------------------------------------
      1          8           0        0.000000    0.117510    0.000000
      2          1           0        0.797362   -0.500790    0.000000
      3          1           0       -0.818787   -0.472125    0.000000
 ---------------------------------------------------------------------
                    Distance matrix (angstroms):
                    1          2          3
     1  O    0.000000
     2  H    1.009000   0.000000
     3  H    1.009000   1.616403   0.000000
 Stoichiometry    H2O
 Framework group  C2V[C2(O),SGV(H2)]
 Deg. of freedom     2
 Full point group                 C2V     NOp   4
 Largest Abelian subgroup         C2V     NOp   4
 Largest concise Abelian subgroup C2      NOp   2
                         Standard orientation:                         
 ---------------------------------------------------------------------
 Center     Atomic      Atomic             Coordinates (Angstroms)
 Number     Number       Type             X           Y           Z
 ---------------------------------------------------------------------
      1          8           0        0.000000    0.000000    0.120812
      2          1           0        0.000000    0.808202   -0.483250
      3          1           0       -0.000000   -0.808202   -0.483250
 ---------------------------------------------------------------------
 Rotational constants (GHZ):         773.7205107         383.8509739         256.5659016
 Leave Link  202 at Wed Feb  8 13:57:46 2023, MaxMem=   754974720 cpu:               0.2 elap:               0.1
 (Enter /opt/cluster/programs/g16-c.01/g16/l301.exe)
 Standard basis: Aug-CC-pVTZ (5D, 7F)
 Ernie: Thresh=  0.10000D-02 Tol=  0.10000D-05 Strict=F.
 Ernie:  3 primitive shells out of 52 were deleted.
 There are    42 symmetry adapted cartesian basis functions of A1  symmetry.
 There are    12 symmetry adapted cartesian basis functions of A2  symmetry.
 There are    20 symmetry adapted cartesian basis functions of B1  symmetry.
 There are    31 symmetry adapted cartesian basis functions of B2  symmetry.
 There are    35 symmetry adapted basis functions of A1  symmetry.
 There are    12 symmetry adapted basis functions of A2  symmetry.
 There are    18 symmetry adapted basis functions of B1  symmetry.
 There are    27 symmetry adapted basis functions of B2  symmetry.
    92 basis functions,   126 primitive gaussians,   105 cartesian basis functions
     5 alpha electrons        5 beta electrons
       nuclear repulsion energy         8.7186930145 Hartrees.
 IExCor=    0 DFT=F Ex=HF Corr=None ExCW=0 ScaHFX=  1.000000
 ScaDFX=  1.000000  1.000000  1.000000  1.000000 ScalE2=  1.000000  1.000000
 IRadAn=      5 IRanWt=     -1 IRanGd=            0 ICorTp=0 IEmpDi=  4
 NAtoms=    3 NActive=    3 NUniq=    2 SFac= 2.25D+00 NAtFMM=   60 NAOKFM=F Big=F
 Integral buffers will be    131072 words long.
 Raffenetti 1 integral format.
 Two-electron integral symmetry is turned on.
 Leave Link  301 at Wed Feb  8 13:57:46 2023, MaxMem=   754974720 cpu:               0.1 elap:               0.1
 (Enter /opt/cluster/programs/g16-c.01/g16/l302.exe)
 NPDir=0 NMtPBC=     1 NCelOv=     1 NCel=       1 NClECP=     1 NCelD=      1
         NCelK=      1 NCelE2=     1 NClLst=     1 CellRange=     0.0.
 One-electron integrals computed using PRISM.
 One-electron integral symmetry used in STVInt
 NBasis=    92 RedAO= T EigKep=  4.25D-04  NBF=    35    12    18    27
 NBsUse=    92 1.00D-06 EigRej= -1.00D+00 NBFU=    35    12    18    27
 Leave Link  302 at Wed Feb  8 13:57:46 2023, MaxMem=   754974720 cpu:               0.9 elap:               0.3
 (Enter /opt/cluster/programs/g16-c.01/g16/l303.exe)
 DipDrv:  MaxL=1.
 Leave Link  303 at Wed Feb  8 13:57:47 2023, MaxMem=   754974720 cpu:               0.7 elap:               0.3
 (Enter /opt/cluster/programs/g16-c.01/g16/l401.exe)
 ExpMin= 2.53D-02 ExpMax= 1.53D+04 ExpMxC= 5.22D+02 IAcc=3 IRadAn=         5 AccDes= 0.00D+00
 Harris functional with IExCor=  205 and IRadAn=       5 diagonalized for initial guess.
 HarFok:  IExCor=  205 AccDes= 0.00D+00 IRadAn=         5 IDoV= 1 UseB2=F ITyADJ=14
 ICtDFT=  3500011 ScaDFX=  1.000000  1.000000  1.000000  1.000000
 FoFCou: FMM=F IPFlag=           0 FMFlag=      100000 FMFlg1=           0
         NFxFlg=           0 DoJE=T BraDBF=F KetDBF=T FulRan=T
         wScrn=  0.000000 ICntrl=       500 IOpCl=  0 I1Cent=   200000004 NGrid=           0
         NMat0=    1 NMatS0=      1 NMatT0=    0 NMatD0=    1 NMtDS0=    0 NMtDT0=    0
 Petite list used in FoFCou.
 Harris En= -76.1466646577740    
 JPrj=0 DoOrth=F DoCkMO=F.
 Initial guess orbital symmetries:
       Occupied  (A1) (A1) (B2) (A1) (B1)
       Virtual   (A1) (B2) (A1) (B1) (B2) (A1) (B2) (A1) (A2) (A1)
                 (B1) (A1) (B2) (B2) (B2) (A1) (A1) (B1) (A2) (A1)
                 (B1) (A1) (B2) (B1) (A2) (A1) (B2) (B2) (A1) (B1)
                 (B2) (A1) (A2) (B2) (A2) (B1) (A1) (A1) (B2) (B2)
                 (A1) (B1) (A2) (A1) (A1) (B1) (B2) (A1) (A1) (B1)
                 (B2) (B2) (A2) (B2) (A1) (B1) (A2) (A1) (B2) (B1)
                 (B2) (B1) (A2) (A1) (A1) (B2) (A2) (B2) (A1) (B2)
                 (B1) (A1) (A1) (B2) (B1) (A1) (B1) (B1) (A2) (A1)
                 (B2) (A2) (A1) (B2) (A1) (B2) (A1)
 The electronic state of the initial guess is 1-A1.
 Leave Link  401 at Wed Feb  8 13:57:49 2023, MaxMem=   754974720 cpu:               4.1 elap:               2.1
 (Enter /opt/cluster/programs/g16-c.01/g16/l502.exe)
 Keep R1 ints in memory in symmetry-blocked form, NReq=11496777.
 FoFCou: FMM=F IPFlag=           0 FMFlag=           0 FMFlg1=           0
         NFxFlg=           0 DoJE=F BraDBF=F KetDBF=F FulRan=T
         wScrn=  0.000000 ICntrl=       600 IOpCl=  0 I1Cent=           0 NGrid=           0
         NMat0=    1 NMatS0=   4278 NMatT0=    0 NMatD0=    1 NMtDS0=    0 NMtDT0=    0
 Petite list used in FoFCou.
 Closed shell SCF:
 Using DIIS extrapolation, IDIIS=  1040.
 NGot=   754974720 LenX=   752607631 LenY=   752596165
 Requested convergence on RMS density matrix=1.00D-08 within 200 cycles.
 Requested convergence on MAX density matrix=1.00D-06.
 Requested convergence on             energy=1.00D-06.
 No special actions if energy rises.

 Cycle   1  Pass 1  IDiag  1:
 E= -75.9670044779208    
 DIIS: error= 5.69D-02 at cycle   1 NSaved=   1.
 NSaved= 1 IEnMin= 1 EnMin= -75.9670044779208     IErMin= 1 ErrMin= 5.69D-02
 ErrMax= 5.69D-02  0.00D+00 EMaxC= 1.00D-01 BMatC= 1.94D-01 BMatP= 1.94D-01
 IDIUse=3 WtCom= 4.31D-01 WtEn= 5.69D-01
 Coeff-Com:  0.100D+01
 Coeff-En:   0.100D+01
 Coeff:      0.100D+01
 Gap=     0.454 Goal=   None    Shift=    0.000
 GapD=    0.454 DampG=2.000 DampE=0.500 DampFc=1.0000 IDamp=-1.
 RMSDP=2.10D-03 MaxDP=4.66D-02              OVMax= 1.27D-01

 Cycle   2  Pass 1  IDiag  1:
 E= -76.0139716694702     Delta-E=       -0.046967191549 Rises=F Damp=F
 DIIS: error= 4.07D-02 at cycle   2 NSaved=   2.
 NSaved= 2 IEnMin= 2 EnMin= -76.0139716694702     IErMin= 2 ErrMin= 4.07D-02
 ErrMax= 4.07D-02  0.00D+00 EMaxC= 1.00D-01 BMatC= 6.05D-02 BMatP= 1.94D-01
 IDIUse=3 WtCom= 5.93D-01 WtEn= 4.07D-01
 Coeff-Com:  0.331D+00 0.669D+00
 Coeff-En:   0.234D+00 0.766D+00
 Coeff:      0.291D+00 0.709D+00
 Gap=     0.560 Goal=   None    Shift=    0.000
 RMSDP=1.32D-03 MaxDP=3.43D-02 DE=-4.70D-02 OVMax= 6.65D-02

 Cycle   3  Pass 1  IDiag  1:
 E= -76.0504779854453     Delta-E=       -0.036506315975 Rises=F Damp=F
 DIIS: error= 8.11D-03 at cycle   3 NSaved=   3.
 NSaved= 3 IEnMin= 3 EnMin= -76.0504779854453     IErMin= 3 ErrMin= 8.11D-03
 ErrMax= 8.11D-03  0.00D+00 EMaxC= 1.00D-01 BMatC= 2.86D-03 BMatP= 6.05D-02
 IDIUse=3 WtCom= 9.19D-01 WtEn= 8.11D-02
 Coeff-Com: -0.319D-01 0.147D+00 0.885D+00
 Coeff-En:   0.000D+00 0.000D+00 0.100D+01
 Coeff:     -0.293D-01 0.135D+00 0.894D+00
 Gap=     0.532 Goal=   None    Shift=    0.000
 RMSDP=2.24D-04 MaxDP=4.20D-03 DE=-3.65D-02 OVMax= 1.35D-02

 Cycle   4  Pass 1  IDiag  1:
 E= -76.0523253484091     Delta-E=       -0.001847362964 Rises=F Damp=F
 DIIS: error= 8.07D-04 at cycle   4 NSaved=   4.
 NSaved= 4 IEnMin= 4 EnMin= -76.0523253484091     IErMin= 4 ErrMin= 8.07D-04
 ErrMax= 8.07D-04  0.00D+00 EMaxC= 1.00D-01 BMatC= 1.78D-05 BMatP= 2.86D-03
 IDIUse=3 WtCom= 9.92D-01 WtEn= 8.07D-03
 Coeff-Com:  0.715D-02-0.568D-01-0.248D+00 0.130D+01
 Coeff-En:   0.000D+00 0.000D+00 0.000D+00 0.100D+01
 Coeff:      0.709D-02-0.564D-01-0.246D+00 0.130D+01
 Gap=     0.534 Goal=   None    Shift=    0.000
 RMSDP=4.39D-05 MaxDP=7.98D-04 DE=-1.85D-03 OVMax= 2.55D-03

 Cycle   5  Pass 1  IDiag  1:
 E= -76.0523574544719     Delta-E=       -0.000032106063 Rises=F Damp=F
 DIIS: error= 2.31D-04 at cycle   5 NSaved=   5.
 NSaved= 5 IEnMin= 5 EnMin= -76.0523574544719     IErMin= 5 ErrMin= 2.31D-04
 ErrMax= 2.31D-04  0.00D+00 EMaxC= 1.00D-01 BMatC= 9.54D-07 BMatP= 1.78D-05
 IDIUse=3 WtCom= 9.98D-01 WtEn= 2.31D-03
 Coeff-Com:  0.694D-03-0.170D-03-0.515D-02-0.247D+00 0.125D+01
 Coeff-En:   0.000D+00 0.000D+00 0.000D+00 0.000D+00 0.100D+01
 Coeff:      0.693D-03-0.169D-03-0.514D-02-0.247D+00 0.125D+01
 Gap=     0.534 Goal=   None    Shift=    0.000
 RMSDP=1.35D-05 MaxDP=2.94D-04 DE=-3.21D-05 OVMax= 8.93D-04

 Cycle   6  Pass 1  IDiag  1:
 E= -76.0523599389071     Delta-E=       -0.000002484435 Rises=F Damp=F
 DIIS: error= 3.83D-05 at cycle   6 NSaved=   6.
 NSaved= 6 IEnMin= 6 EnMin= -76.0523599389071     IErMin= 6 ErrMin= 3.83D-05
 ErrMax= 3.83D-05  0.00D+00 EMaxC= 1.00D-01 BMatC= 3.12D-08 BMatP= 9.54D-07
 IDIUse=1 WtCom= 1.00D+00 WtEn= 0.00D+00
 Coeff-Com: -0.378D-03 0.195D-02 0.880D-02 0.776D-02-0.320D+00 0.130D+01
 Coeff:     -0.378D-03 0.195D-02 0.880D-02 0.776D-02-0.320D+00 0.130D+01
 Gap=     0.535 Goal=   None    Shift=    0.000
 RMSDP=2.95D-06 MaxDP=7.33D-05 DE=-2.48D-06 OVMax= 2.02D-04

 Cycle   7  Pass 1  IDiag  1:
 E= -76.0523600381735     Delta-E=       -0.000000099266 Rises=F Damp=F
 DIIS: error= 6.26D-06 at cycle   7 NSaved=   7.
 NSaved= 7 IEnMin= 7 EnMin= -76.0523600381735     IErMin= 7 ErrMin= 6.26D-06
 ErrMax= 6.26D-06  0.00D+00 EMaxC= 1.00D-01 BMatC= 1.50D-09 BMatP= 3.12D-08
 IDIUse=1 WtCom= 1.00D+00 WtEn= 0.00D+00
 Coeff-Com:  0.398D-04-0.405D-03-0.185D-02 0.155D-01-0.122D-01-0.204D+00
 Coeff-Com:  0.120D+01
 Coeff:      0.398D-04-0.405D-03-0.185D-02 0.155D-01-0.122D-01-0.204D+00
 Coeff:      0.120D+01
 Gap=     0.535 Goal=   None    Shift=    0.000
 RMSDP=4.17D-07 MaxDP=1.04D-05 DE=-9.93D-08 OVMax= 3.64D-05

 Cycle   8  Pass 1  IDiag  1:
 E= -76.0523600414236     Delta-E=       -0.000000003250 Rises=F Damp=F
 DIIS: error= 1.63D-06 at cycle   8 NSaved=   8.
 NSaved= 8 IEnMin= 8 EnMin= -76.0523600414236     IErMin= 8 ErrMin= 1.63D-06
 ErrMax= 1.63D-06  0.00D+00 EMaxC= 1.00D-01 BMatC= 8.27D-11 BMatP= 1.50D-09
 IDIUse=1 WtCom= 1.00D+00 WtEn= 0.00D+00
 Coeff-Com:  0.805D-05 0.150D-04 0.151D-03-0.529D-02 0.197D-01-0.164D-02
 Coeff-Com: -0.392D+00 0.138D+01
 Coeff:      0.805D-05 0.150D-04 0.151D-03-0.529D-02 0.197D-01-0.164D-02
 Coeff:     -0.392D+00 0.138D+01
 Gap=     0.535 Goal=   None    Shift=    0.000
 RMSDP=1.38D-07 MaxDP=3.04D-06 DE=-3.25D-09 OVMax= 9.22D-06

 Cycle   9  Pass 1  IDiag  1:
 E= -76.0523600416376     Delta-E=       -0.000000000214 Rises=F Damp=F
 DIIS: error= 2.47D-07 at cycle   9 NSaved=   9.
 NSaved= 9 IEnMin= 9 EnMin= -76.0523600416376     IErMin= 9 ErrMin= 2.47D-07
 ErrMax= 2.47D-07  0.00D+00 EMaxC= 1.00D-01 BMatC= 1.57D-12 BMatP= 8.27D-11
 IDIUse=1 WtCom= 1.00D+00 WtEn= 0.00D+00
 Coeff-Com: -0.258D-05 0.258D-05-0.180D-04 0.109D-02-0.426D-02 0.151D-02
 Coeff-Com:  0.956D-01-0.425D+00 0.133D+01
 Coeff:     -0.258D-05 0.258D-05-0.180D-04 0.109D-02-0.426D-02 0.151D-02
 Coeff:      0.956D-01-0.425D+00 0.133D+01
 Gap=     0.535 Goal=   None    Shift=    0.000
 RMSDP=2.46D-08 MaxDP=4.46D-07 DE=-2.14D-10 OVMax= 1.19D-06

 Cycle  10  Pass 1  IDiag  1:
 E= -76.0523600416417     Delta-E=       -0.000000000004 Rises=F Damp=F
 DIIS: error= 5.11D-08 at cycle  10 NSaved=  10.
 NSaved=10 IEnMin=10 EnMin= -76.0523600416417     IErMin=10 ErrMin= 5.11D-08
 ErrMax= 5.11D-08  0.00D+00 EMaxC= 1.00D-01 BMatC= 6.39D-14 BMatP= 1.57D-12
 IDIUse=1 WtCom= 1.00D+00 WtEn= 0.00D+00
 Coeff-Com:  0.760D-06-0.155D-05 0.210D-05-0.268D-03 0.110D-02-0.922D-03
 Coeff-Com: -0.217D-01 0.113D+00-0.516D+00 0.143D+01
 Coeff:      0.760D-06-0.155D-05 0.210D-05-0.268D-03 0.110D-02-0.922D-03
 Coeff:     -0.217D-01 0.113D+00-0.516D+00 0.143D+01
 Gap=     0.535 Goal=   None    Shift=    0.000
 RMSDP=6.18D-09 MaxDP=1.65D-07 DE=-4.15D-12 OVMax= 3.48D-07

 SCF Done:  E(RHF) =  -76.0523600416     A.U. after   10 cycles
            NFock= 10  Conv=0.62D-08     -V/T= 2.0038
 KE= 7.576777757522D+01 PE=-1.979635829327D+02 EE= 3.742475230134D+01
 Leave Link  502 at Wed Feb  8 13:57:50 2023, MaxMem=   754974720 cpu:               2.7 elap:               0.8
 (Enter /opt/cluster/programs/g16-c.01/g16/l801.exe)
 Windowed orbitals will be sorted by symmetry type.
 ExpMin= 2.53D-02 ExpMax= 1.53D+04 ExpMxC= 5.22D+02 IAcc=3 IRadAn=         5 AccDes= 0.00D+00
 HarFok:  IExCor=  205 AccDes= 0.00D+00 IRadAn=         5 IDoV=-2 UseB2=F ITyADJ=14
 ICtDFT= 12500011 ScaDFX=  1.000000  1.000000  1.000000  1.000000
 Largest valence mixing into a core orbital is  1.13D-04
 Largest core mixing into a valence orbital is  1.86D-05
 Range of M.O.s used for correlation:     2    92
 NBasis=    92 NAE=     5 NBE=     5 NFC=     1 NFV=     0
 NROrb=     91 NOA=     4 NOB=     4 NVA=    87 NVB=    87

 **** Warning!!: The largest alpha MO coefficient is  0.15058693D+02

 Leave Link  801 at Wed Feb  8 13:57:50 2023, MaxMem=   754974720 cpu:               0.9 elap:               0.4
 (Enter /opt/cluster/programs/g16-c.01/g16/l804.exe)
 Closed-shell transformation, MDV=   754974720 ITran=4 ISComp=2.
 Unit  1 TFree=        277513 TCopy=        242092.
 Semi-Direct transformation.
 ModeAB=           4 MOrb=             4 LenV=     754589018
 LASXX=       368428 LTotXX=      368428 LenRXX=      751146
 LTotAB=      382718 MaxLAS=     1379560 LenRXY=           0
 NonZer=     1119574 LenScr=     2357760 LnRSAI=     1379560
 LnScr1=     2758656 LExtra=           0 Total=      7247122
 MaxDsk=          -1 SrtSym=           T ITran=            4
 DoSDTr:  NPSUse=  4
 JobTyp=0 Pass  1:  I=   1 to   4.
 (rs|ai) integrals will be sorted in core.
 Complete sort for first half transformation.
 First half transformation complete.
 Complete sort for second half transformation.
 Second half transformation complete.
 Spin components of T(2) and E(2):
     alpha-alpha T2 =       0.8550798125D-02 E2=     -0.3302451272D-01
     alpha-beta  T2 =       0.5003402451D-01 E2=     -0.2063569333D+00
     beta-beta   T2 =       0.8550798125D-02 E2=     -0.3302451272D-01
 ANorm=    0.1033022565D+01
 E2 =    -0.2724059587D+00 EUMP2 =    -0.76324766000343D+02
 Leave Link  804 at Wed Feb  8 13:57:55 2023, MaxMem=   754974720 cpu:              10.5 elap:               5.3
 (Enter /opt/cluster/programs/g16-c.01/g16/l913.exe)
 CIDS:  MDV=   754974720.
 Frozen-core window:  NFC=   1 NFV=   0.
 IFCWin=0 IBDFC=1 NFBD=     0     0 NFCmp=     0     0 NFFFC=     0     0
 Using DD3R+UMP44R for 1st iteration.
 Using DD4RQ for 2nd and later iterations.
 Keep R2 and R3 ints in memory in symmetry-blocked form, NReq=11500115.
 FoFCou: FMM=F IPFlag=           0 FMFlag=           0 FMFlg1=           0
         NFxFlg=           0 DoJE=F BraDBF=F KetDBF=F FulRan=T
         wScrn=  0.000000 ICntrl=       600 IOpCl=  0 I1Cent=           0 NGrid=           0
         NMat0=    1 NMatS0=   4278 NMatT0=    0 NMatD0=    1 NMtDS0=    0 NMtDT0=    0
 Petite list used in FoFCou.
 CIDS: In Core Option IDoMem=           1.
 CCSD(T)
 =======
 Iterations=  50 Convergence= 0.100D-06
 Produce multiple copies of IABC intergrals
 Iteration Nr.   1
 **********************
 DD1Dir will call FoFMem   1 times, MxPair=        20
 NAB=    10 NAA=     0 NBB=     0.
 MP4(R+Q)=  0.42644279D-02
 Maximum subspace dimension=  5
 A-vector RMS=  3.0767671D-03 Max=  1.3532333D-02 conv= 1.00D-05.
 RLE energy=       -0.2698192732
 E3=       -0.16980917D-02        EUMP3=      -0.76326464092D+02
 E4(DQ)=   -0.95325962D-03        UMP4(DQ)=   -0.76327417352D+02
 E4(SDQ)=  -0.30953683D-02        UMP4(SDQ)=  -0.76329559460D+02
 VARIATIONAL ENERGIES WITH THE FIRST-ORDER WAVEFUNCTION:
 DE(Corr)= -0.26979448     E(Corr)=     -76.322154524    
 NORM(A)=   0.10326498D+01
 Iteration Nr.   2
 **********************
 DD1Dir will call FoFMem   1 times, MxPair=        20
 NAB=    10 NAA=     0 NBB=     0.
 A-vector RMS=  3.4576663D-04 Max=  2.4423879D-03 conv= 1.00D-05.
 RLE energy=       -0.2762379427
 DE(Corr)= -0.27581345     E(CORR)=     -76.328173491     Delta=-6.02D-03
 NORM(A)=   0.10351117D+01
 Iteration Nr.   3
 **********************
 DD1Dir will call FoFMem   1 times, MxPair=        20
 NAB=    10 NAA=     0 NBB=     0.
 A-vector RMS=  4.4576863D-04 Max=  2.5365471D-03 conv= 1.00D-05.
 RLE energy=       -0.2766108740
 DE(Corr)= -0.27616428     E(CORR)=     -76.328524322     Delta=-3.51D-04
 NORM(A)=   0.10356347D+01
 Iteration Nr.   4
 **********************
 DD1Dir will call FoFMem   1 times, MxPair=        20
 NAB=    10 NAA=     0 NBB=     0.
 A-vector RMS=  7.3897931D-05 Max=  4.3040487D-04 conv= 1.00D-05.
 RLE energy=       -0.2766528265
 DE(Corr)= -0.27661816     E(CORR)=     -76.328978202     Delta=-4.54D-04
 NORM(A)=   0.10357727D+01
 Iteration Nr.   5
 **********************
 DD1Dir will call FoFMem   1 times, MxPair=        20
 NAB=    10 NAA=     0 NBB=     0.
 A-vector RMS=  3.5694419D-05 Max=  2.1542044D-04 conv= 1.00D-05.
 RLE energy=       -0.2766684854
 DE(Corr)= -0.27666140     E(CORR)=     -76.329021439     Delta=-4.32D-05
 NORM(A)=   0.10358014D+01
 Iteration Nr.   6
 **********************
 DD1Dir will call FoFMem   1 times, MxPair=        20
 NAB=    10 NAA=     0 NBB=     0.
 A-vector RMS=  8.5925249D-06 Max=  4.3340464D-05 conv= 1.00D-05.
 RLE energy=       -0.2766638314
 DE(Corr)= -0.27666512     E(CORR)=     -76.329025162     Delta=-3.72D-06
 NORM(A)=   0.10358038D+01
 Iteration Nr.   7
 **********************
 DD1Dir will call FoFMem   1 times, MxPair=        20
 NAB=    10 NAA=     0 NBB=     0.
 A-vector RMS=  3.2994810D-06 Max=  1.8389962D-05 conv= 1.00D-05.
 RLE energy=       -0.2766640535
 DE(Corr)= -0.27666518     E(CORR)=     -76.329025225     Delta=-6.31D-08
 NORM(A)=   0.10358046D+01
 Iteration Nr.   8
 **********************
 DD1Dir will call FoFMem   1 times, MxPair=        20
 NAB=    10 NAA=     0 NBB=     0.
 A-vector RMS=  1.2402133D-06 Max=  5.7859951D-06 conv= 1.00D-05.
 RLE energy=       -0.2766646794
 DE(Corr)= -0.27666484     E(CORR)=     -76.329024878     Delta= 3.48D-07
 NORM(A)=   0.10358050D+01
 Iteration Nr.   9
 **********************
 DD1Dir will call FoFMem   1 times, MxPair=        20
 NAB=    10 NAA=     0 NBB=     0.
 A-vector RMS=  3.8417562D-07 Max=  2.2634643D-06 conv= 1.00D-05.
 RLE energy=       -0.2766648323
 DE(Corr)= -0.27666486     E(CORR)=     -76.329024899     Delta=-2.18D-08
 NORM(A)=   0.10358053D+01
 CI/CC converged in    9 iterations to DelEn=-2.18D-08 Conv= 1.00D-07 ErrA1= 3.84D-07 Conv= 1.00D-05
 Wavefunction amplitudes converged. E(Corr)=     -76.329024899    
 Largest amplitude= 2.47D-02
 IPart=  1 IA=    6   11.23% done.
 IPart=  1 IA=   11   21.79% done.
 IPart=  1 IA=   16   31.68% done.
 IPart=  2 IA=   21   40.90% done.
 IPart=  4 IA=   27   51.08% done.
 IPart=  2 IA=   33   60.30% done.
 IPart=  2 IA=   41   71.10% done.
 IPart=  2 IA=   49   80.19% done.
 IPart=  4 IA=   61   90.62% done.
 Time for triples=        7.04 seconds.
 T4(CCSD)= -0.95140993D-02
 T5(CCSD)=  0.36518493D-03
 CCSD(T)= -0.76338173814D+02
 Discarding MO integrals.
 Leave Link  913 at Wed Feb  8 13:58:11 2023, MaxMem=   754974720 cpu:              46.8 elap:              15.2
 (Enter /opt/cluster/programs/g16-c.01/g16/l601.exe)
 Copying SCF densities to generalized density rwf, IOpCl= 0 IROHF=0.

 **********************************************************************

            Population analysis using the SCF Density.

 **********************************************************************

 Orbital symmetries:
       Occupied  (A1) (A1) (B2) (A1) (B1)
       Virtual   (A1) (B2) (A1) (B1) (A1) (B2) (B2) (A1) (A2) (B1)
                 (A1) (B2) (A1) (B2) (B2) (A1) (A1) (A2) (B1) (A1)
                 (B1) (B2) (A1) (A2) (B2) (B1) (A1) (A1) (B2) (B1)
                 (B2) (A1) (A2) (B2) (A2) (B1) (A1) (B2) (A1) (B2)
                 (A1) (B1) (A2) (A1) (A1) (B1) (B2) (A1) (B1) (A1)
                 (B2) (B2) (A2) (B2) (A1) (A2) (B1) (A1) (B2) (B1)
                 (A2) (B1) (A1) (B2) (A1) (B2) (B2) (A2) (A1) (B2)
                 (B1) (A1) (A1) (B2) (B1) (A1) (B1) (A2) (B1) (B2)
                 (A1) (A2) (A1) (B2) (A1) (B2) (A1)
 The electronic state is 1-A1.
 Alpha  occ. eigenvalues --  -20.57506  -1.32725  -0.69375  -0.57133  -0.50576
 Alpha virt. eigenvalues --    0.02884   0.04733   0.13587   0.16075   0.17266
 Alpha virt. eigenvalues --    0.18233   0.22337   0.24259   0.26417   0.30026
 Alpha virt. eigenvalues --    0.30988   0.36397   0.42710   0.45639   0.59831
 Alpha virt. eigenvalues --    0.65129   0.70842   0.72222   0.73346   0.81226
 Alpha virt. eigenvalues --    0.83968   0.90164   0.90173   0.91527   0.92621
 Alpha virt. eigenvalues --    0.92771   0.96128   1.00532   1.02896   1.07530
 Alpha virt. eigenvalues --    1.09937   1.16080   1.16150   1.27852   1.49495
 Alpha virt. eigenvalues --    1.56110   1.56110   1.75820   1.82454   1.93241
 Alpha virt. eigenvalues --    2.06368   2.25494   2.30493   2.32837   2.40356
 Alpha virt. eigenvalues --    2.40608   2.44062   2.50349   2.70905   2.71225
 Alpha virt. eigenvalues --    2.71771   2.82814   2.85584   3.56087   3.68296
 Alpha virt. eigenvalues --    3.97307   4.03238   4.14890   4.16778   4.27338
 Alpha virt. eigenvalues --    4.35659   4.36841   4.42023   4.45680   4.63870
 Alpha virt. eigenvalues --    4.69482   4.99882   5.02998   5.14156   5.20976
 Alpha virt. eigenvalues --    5.36000   5.59432   6.09048   6.54276   6.69391
 Alpha virt. eigenvalues --    6.80061   7.07094   7.18500   7.22390   7.23253
 Alpha virt. eigenvalues --    7.29662   7.35965   7.40792   7.78050   7.85017
 Alpha virt. eigenvalues --    8.52023  14.35955
          Condensed to atoms (all electrons):
               1          2          3
     1  O    7.994800   0.257759   0.257759
     2  H    0.257759   0.456939   0.030143
     3  H    0.257759   0.030143   0.456939
 Mulliken charges:
               1
     1  O   -0.510318
     2  H    0.255159
     3  H    0.255159
 Sum of Mulliken charges =  -0.00000
 Mulliken charges with hydrogens summed into heavy atoms:
               1
     1  O   -0.000000
 Electronic spatial extent (au):  <R**2>=             20.1639
 Charge=             -0.0000 electrons
 Dipole moment (field-independent basis, Debye):
    X=             -0.0000    Y=              0.0000    Z=             -1.9904  Tot=              1.9904
 Quadrupole moment (field-independent basis, Debye-Ang):
   XX=             -7.6790   YY=             -4.0281   ZZ=             -6.3351
   XY=              0.0000   XZ=              0.0000   YZ=              0.0000
 Traceless Quadrupole moment (field-independent basis, Debye-Ang):
   XX=             -1.6649   YY=              1.9860   ZZ=             -0.3211
   XY=              0.0000   XZ=              0.0000   YZ=              0.0000
 Octapole moment (field-independent basis, Debye-Ang**2):
  XXX=              0.0000  YYY=             -0.0000  ZZZ=             -1.0558  XYY=             -0.0000
  XXY=              0.0000  XXZ=             -0.2181  XZZ=              0.0000  YZZ=             -0.0000
  YYZ=             -1.5779  XYZ=             -0.0000
 Hexadecapole moment (field-independent basis, Debye-Ang**3):
 XXXX=             -6.9089 YYYY=             -6.2218 ZZZZ=             -7.6416 XXXY=             -0.0000
 XXXZ=             -0.0000 YYYX=              0.0000 YYYZ=              0.0000 ZZZX=             -0.0000
 ZZZY=             -0.0000 XXYY=             -2.6077 XXZZ=             -2.4798 YYZZ=             -1.9193
 XXYZ=             -0.0000 YYXZ=              0.0000 ZZXY=              0.0000
 N-N= 8.718693014477D+00 E-N=-1.979635829521D+02  KE= 7.576777757522D+01
 Symmetry A1   KE= 6.784624483974D+01
 Symmetry A2   KE=-6.374241566164D-21
 Symmetry B1   KE= 4.473667479020D+00
 Symmetry B2   KE= 3.447865256463D+00
 Leave Link  601 at Wed Feb  8 13:58:11 2023, MaxMem=   754974720 cpu:               1.5 elap:               0.8
 (Enter /opt/cluster/programs/g16-c.01/g16/l9999.exe)
 Unable to Open any file for archive entry.
 1\1\GINC-NODE63\SP\RCCSD(T)-FC\Aug-CC-pVTZ\H2O1\BOITTIER\08-Feb-2023\0
 \\#P CCSD(T)/aug-cc-pVTZ scf(maxcycle=200)\\Gaussian input\\0,1\O,0,0.
 ,0.11751,0.\H,0,0.7973622306,-0.5007896629,0.\H,0,-0.8187867861,-0.472
 1248014,0.\\Version=ES64L-G16RevC.01\State=1-A1\HF=-76.05236\MP2=-76.3
 24766\MP3=-76.3264641\MP4D=-76.3316818\MP4DQ=-76.3274174\MP4SDQ=-76.32
 95595\CCSD=-76.3290249\CCSD(T)=-76.3381738\RMSD=6.180e-09\PG=C02V [C2(
 O1),SGV(H2)]\\@
 The archive entry for this job was punched.


0EVERYBODY IS IGNORANT, ONLY ON DIFFERENT SUBJECTS.
0          WILL ROGERS
 Job cpu time:       0 days  0 hours  1 minutes  9.2 seconds.
 Elapsed time:       0 days  0 hours  0 minutes 25.6 seconds.
 File lengths (MBytes):  RWF=     64 Int=      0 D2E=      0 Chk=      2 Scr=      1
 Normal termination of Gaussian 16 at Wed Feb  8 13:58:12 2023.
