 Entering Gaussian System, Link 0=/opt/cluster/programs/g16-c.01/g16/g16
 Input=/scratch/boittier/jobs/tmp.7261832/gaussian_154_water_ccsdt_atz.com
 Output=/scratch/boittier/jobs/tmp.7261832/gaussian_154_water_ccsdt_atz.out
 Initial command:
 /opt/cluster/programs/g16-c.01/g16/l1.exe "/scratch/boittier/jobs/tmp.7261832/Gau-108470.inp" -scrdir="/scratch/boittier/jobs/tmp.7261832/"
 Entering Link 1 = /opt/cluster/programs/g16-c.01/g16/l1.exe PID=    108471.
  
 Copyright (c) 1988-2019, Gaussian, Inc.  All Rights Reserved.
  
 This is part of the Gaussian(R) 16 program.  It is based on
 the Gaussian(R) 09 system (copyright 2009, Gaussian, Inc.),
 the Gaussian(R) 03 system (copyright 2003, Gaussian, Inc.),
 the Gaussian(R) 98 system (copyright 1998, Gaussian, Inc.),
 the Gaussian(R) 94 system (copyright 1995, Gaussian, Inc.),
 the Gaussian 92(TM) system (copyright 1992, Gaussian, Inc.),
 the Gaussian 90(TM) system (copyright 1990, Gaussian, Inc.),
 the Gaussian 88(TM) system (copyright 1988, Gaussian, Inc.),
 the Gaussian 86(TM) system (copyright 1986, Carnegie Mellon
 University), and the Gaussian 82(TM) system (copyright 1983,
 Carnegie Mellon University). Gaussian is a federally registered
 trademark of Gaussian, Inc.
  
 This software contains proprietary and confidential information,
 including trade secrets, belonging to Gaussian, Inc.
  
 This software is provided under written license and may be
 used, copied, transmitted, or stored only in accord with that
 written license.
  
 The following legend is applicable only to US Government
 contracts under FAR:
  
                    RESTRICTED RIGHTS LEGEND
  
 Use, reproduction and disclosure by the US Government is
 subject to restrictions as set forth in subparagraphs (a)
 and (c) of the Commercial Computer Software - Restricted
 Rights clause in FAR 52.227-19.
  
 Gaussian, Inc.
 340 Quinnipiac St., Bldg. 40, Wallingford CT 06492
  
  
 ---------------------------------------------------------------
 Warning -- This program may not be used in any manner that
 competes with the business of Gaussian, Inc. or will provide
 assistance to any competitor of Gaussian, Inc.  The licensee
 of this program is prohibited from giving any competitor of
 Gaussian, Inc. access to this program.  By using this program,
 the user acknowledges that Gaussian, Inc. is engaged in the
 business of creating and licensing software in the field of
 computational chemistry and represents and warrants to the
 licensee that it is not a competitor of Gaussian, Inc. and that
 it will not use this program in any manner prohibited above.
 ---------------------------------------------------------------
  

 Cite this work as:
 Gaussian 16, Revision C.01,
 M. J. Frisch, G. W. Trucks, H. B. Schlegel, G. E. Scuseria, 
 M. A. Robb, J. R. Cheeseman, G. Scalmani, V. Barone, 
 G. A. Petersson, H. Nakatsuji, X. Li, M. Caricato, A. V. Marenich, 
 J. Bloino, B. G. Janesko, R. Gomperts, B. Mennucci, H. P. Hratchian, 
 J. V. Ortiz, A. F. Izmaylov, J. L. Sonnenberg, D. Williams-Young, 
 F. Ding, F. Lipparini, F. Egidi, J. Goings, B. Peng, A. Petrone, 
 T. Henderson, D. Ranasinghe, V. G. Zakrzewski, J. Gao, N. Rega, 
 G. Zheng, W. Liang, M. Hada, M. Ehara, K. Toyota, R. Fukuda, 
 J. Hasegawa, M. Ishida, T. Nakajima, Y. Honda, O. Kitao, H. Nakai, 
 T. Vreven, K. Throssell, J. A. Montgomery, Jr., J. E. Peralta, 
 F. Ogliaro, M. J. Bearpark, J. J. Heyd, E. N. Brothers, K. N. Kudin, 
 V. N. Staroverov, T. A. Keith, R. Kobayashi, J. Normand, 
 K. Raghavachari, A. P. Rendell, J. C. Burant, S. S. Iyengar, 
 J. Tomasi, M. Cossi, J. M. Millam, M. Klene, C. Adamo, R. Cammi, 
 J. W. Ochterski, R. L. Martin, K. Morokuma, O. Farkas, 
 J. B. Foresman, and D. J. Fox, Gaussian, Inc., Wallingford CT, 2019.
 
 ******************************************
 Gaussian 16:  ES64L-G16RevC.01  3-Jul-2019
                 8-Feb-2023 
 ******************************************
 %nproc=4
 Will use up to    4 processors via shared memory.
 %mem=5760MB
 %chk=gaussian_154_water_ccsdt_atz.chk
 ----------------------------------------
 #P CCSD(T)/aug-cc-pVTZ scf(maxcycle=200)
 ----------------------------------------
 1/38=1,172=1/1;
 2/12=2,17=6,18=5,40=1/2;
 3/5=16,6=1,7=10,11=9,25=1,30=1/1,2,3;
 4//1;
 5/5=2,7=200,38=5/2;
 8/6=4,9=120000,10=1/1,4;
 9/5=7,14=2/13;
 6/7=2,8=2,9=2,10=2/1;
 99/5=1,9=1/99;
 Leave Link    1 at Wed Feb  8 13:56:44 2023, MaxMem=   754974720 cpu:               0.1 elap:               0.0
 (Enter /opt/cluster/programs/g16-c.01/g16/l101.exe)
 --------------
 Gaussian input
 --------------
 Symbolic Z-matrix:
 Charge =  0 Multiplicity = 1
 O                     0.        0.11751   0. 
 H                     0.79736  -0.50079   0. 
 H                    -0.83253  -0.35849   0. 
 
 ITRead=  0  0  0
 MicOpt= -1 -1 -1
 NAtoms=      3 NQM=        3 NQMF=       0 NMMI=      0 NMMIF=      0
                NMic=       0 NMicF=      0.
                    Isotopes and Nuclear Properties:
 (Nuclear quadrupole moments (NQMom) in fm**2, nuclear magnetic moments (NMagM)
  in nuclear magnetons)

  Atom         1           2           3
 IAtWgt=          16           1           1
 AtmWgt=  15.9949146   1.0078250   1.0078250
 NucSpn=           0           1           1
 AtZEff=  -0.0000000  -0.0000000  -0.0000000
 NQMom=    0.0000000   0.0000000   0.0000000
 NMagM=    0.0000000   2.7928460   2.7928460
 AtZNuc=   8.0000000   1.0000000   1.0000000
 Leave Link  101 at Wed Feb  8 13:56:44 2023, MaxMem=   754974720 cpu:               0.6 elap:               0.2
 (Enter /opt/cluster/programs/g16-c.01/g16/l202.exe)
                          Input orientation:                          
 ---------------------------------------------------------------------
 Center     Atomic      Atomic             Coordinates (Angstroms)
 Number     Number       Type             X           Y           Z
 ---------------------------------------------------------------------
      1          8           0        0.000000    0.117510    0.000000
      2          1           0        0.797362   -0.500790    0.000000
      3          1           0       -0.832529   -0.358491    0.000000
 ---------------------------------------------------------------------
                    Distance matrix (angstroms):
                    1          2          3
     1  O    0.000000
     2  H    1.009000   0.000000
     3  H    0.959000   1.636091   0.000000
 Stoichiometry    H2O
 Framework group  CS[SG(H2O)]
 Deg. of freedom     3
 Full point group                 CS      NOp   2
 Largest Abelian subgroup         CS      NOp   2
 Largest concise Abelian subgroup C1      NOp   1
                         Standard orientation:                         
 ---------------------------------------------------------------------
 Center     Atomic      Atomic             Coordinates (Angstroms)
 Number     Number       Type             X           Y           Z
 ---------------------------------------------------------------------
      1          8           0        0.000000    0.109487   -0.000000
      2          1           0        0.816810   -0.482883    0.000000
      3          1           0       -0.816810   -0.393009   -0.000000
 ---------------------------------------------------------------------
 Rotational constants (GHZ):         946.8043938         373.9258005         268.0597387
 Leave Link  202 at Wed Feb  8 13:56:44 2023, MaxMem=   754974720 cpu:               0.1 elap:               0.0
 (Enter /opt/cluster/programs/g16-c.01/g16/l301.exe)
 Standard basis: Aug-CC-pVTZ (5D, 7F)
 Ernie: Thresh=  0.10000D-02 Tol=  0.10000D-05 Strict=F.
 Ernie:  3 primitive shells out of 52 were deleted.
 There are    73 symmetry adapted cartesian basis functions of A'  symmetry.
 There are    32 symmetry adapted cartesian basis functions of A"  symmetry.
 There are    62 symmetry adapted basis functions of A'  symmetry.
 There are    30 symmetry adapted basis functions of A"  symmetry.
    92 basis functions,   126 primitive gaussians,   105 cartesian basis functions
     5 alpha electrons        5 beta electrons
       nuclear repulsion energy         8.9335051484 Hartrees.
 IExCor=    0 DFT=F Ex=HF Corr=None ExCW=0 ScaHFX=  1.000000
 ScaDFX=  1.000000  1.000000  1.000000  1.000000 ScalE2=  1.000000  1.000000
 IRadAn=      5 IRanWt=     -1 IRanGd=            0 ICorTp=0 IEmpDi=  4
 NAtoms=    3 NActive=    3 NUniq=    3 SFac= 1.00D+00 NAtFMM=   60 NAOKFM=F Big=F
 Integral buffers will be    131072 words long.
 Raffenetti 1 integral format.
 Two-electron integral symmetry is turned on.
 Leave Link  301 at Wed Feb  8 13:56:44 2023, MaxMem=   754974720 cpu:               0.1 elap:               0.0
 (Enter /opt/cluster/programs/g16-c.01/g16/l302.exe)
 NPDir=0 NMtPBC=     1 NCelOv=     1 NCel=       1 NClECP=     1 NCelD=      1
         NCelK=      1 NCelE2=     1 NClLst=     1 CellRange=     0.0.
 One-electron integrals computed using PRISM.
 One-electron integral symmetry used in STVInt
 NBasis=    92 RedAO= T EigKep=  3.74D-04  NBF=    62    30
 NBsUse=    92 1.00D-06 EigRej= -1.00D+00 NBFU=    62    30
 Leave Link  302 at Wed Feb  8 13:56:44 2023, MaxMem=   754974720 cpu:               0.4 elap:               0.1
 (Enter /opt/cluster/programs/g16-c.01/g16/l303.exe)
 DipDrv:  MaxL=1.
 Leave Link  303 at Wed Feb  8 13:56:44 2023, MaxMem=   754974720 cpu:               0.2 elap:               0.1
 (Enter /opt/cluster/programs/g16-c.01/g16/l401.exe)
 ExpMin= 2.53D-02 ExpMax= 1.53D+04 ExpMxC= 5.22D+02 IAcc=3 IRadAn=         5 AccDes= 0.00D+00
 Harris functional with IExCor=  205 and IRadAn=       5 diagonalized for initial guess.
 HarFok:  IExCor=  205 AccDes= 0.00D+00 IRadAn=         5 IDoV= 1 UseB2=F ITyADJ=14
 ICtDFT=  3500011 ScaDFX=  1.000000  1.000000  1.000000  1.000000
 FoFCou: FMM=F IPFlag=           0 FMFlag=      100000 FMFlg1=           0
         NFxFlg=           0 DoJE=T BraDBF=F KetDBF=T FulRan=T
         wScrn=  0.000000 ICntrl=       500 IOpCl=  0 I1Cent=   200000004 NGrid=           0
         NMat0=    1 NMatS0=      1 NMatT0=    0 NMatD0=    1 NMtDS0=    0 NMtDT0=    0
 Petite list used in FoFCou.
 Harris En= -76.1497771496590    
 JPrj=0 DoOrth=F DoCkMO=F.
 Initial guess orbital symmetries:
       Occupied  (A') (A') (A') (A') (A")
       Virtual   (A') (A') (A') (A") (A') (A') (A') (A') (A") (A')
                 (A") (A') (A') (A') (A') (A') (A') (A") (A") (A')
                 (A') (A") (A") (A') (A") (A') (A') (A') (A') (A")
                 (A') (A') (A") (A') (A") (A") (A') (A') (A') (A')
                 (A') (A") (A") (A') (A') (A") (A') (A') (A') (A")
                 (A') (A") (A') (A') (A') (A") (A") (A') (A') (A")
                 (A") (A') (A") (A') (A') (A') (A') (A") (A') (A')
                 (A") (A') (A') (A') (A") (A') (A") (A") (A') (A")
                 (A") (A') (A') (A') (A') (A') (A')
 The electronic state of the initial guess is 1-A'.
 Leave Link  401 at Wed Feb  8 13:56:45 2023, MaxMem=   754974720 cpu:               0.7 elap:               0.2
 (Enter /opt/cluster/programs/g16-c.01/g16/l502.exe)
 Keep R1 ints in memory in symmetry-blocked form, NReq=13818732.
 FoFCou: FMM=F IPFlag=           0 FMFlag=           0 FMFlg1=           0
         NFxFlg=           0 DoJE=F BraDBF=F KetDBF=F FulRan=T
         wScrn=  0.000000 ICntrl=       600 IOpCl=  0 I1Cent=           0 NGrid=           0
         NMat0=    1 NMatS0=   4278 NMatT0=    0 NMatD0=    1 NMtDS0=    0 NMtDT0=    0
 Petite list used in FoFCou.
 Closed shell SCF:
 Using DIIS extrapolation, IDIIS=  1040.
 NGot=   754974720 LenX=   750285684 LenY=   750274218
 Requested convergence on RMS density matrix=1.00D-08 within 200 cycles.
 Requested convergence on MAX density matrix=1.00D-06.
 Requested convergence on             energy=1.00D-06.
 No special actions if energy rises.

 Cycle   1  Pass 1  IDiag  1:
 E= -75.9665891156613    
 DIIS: error= 6.02D-02 at cycle   1 NSaved=   1.
 NSaved= 1 IEnMin= 1 EnMin= -75.9665891156613     IErMin= 1 ErrMin= 6.02D-02
 ErrMax= 6.02D-02  0.00D+00 EMaxC= 1.00D-01 BMatC= 2.01D-01 BMatP= 2.01D-01
 IDIUse=3 WtCom= 3.98D-01 WtEn= 6.02D-01
 Coeff-Com:  0.100D+01
 Coeff-En:   0.100D+01
 Coeff:      0.100D+01
 Gap=     0.452 Goal=   None    Shift=    0.000
 GapD=    0.452 DampG=2.000 DampE=0.500 DampFc=1.0000 IDamp=-1.
 RMSDP=2.15D-03 MaxDP=4.82D-02              OVMax= 1.24D-01

 Cycle   2  Pass 1  IDiag  1:
 E= -76.0170019114255     Delta-E=       -0.050412795764 Rises=F Damp=F
 DIIS: error= 4.10D-02 at cycle   2 NSaved=   2.
 NSaved= 2 IEnMin= 2 EnMin= -76.0170019114255     IErMin= 2 ErrMin= 4.10D-02
 ErrMax= 4.10D-02  0.00D+00 EMaxC= 1.00D-01 BMatC= 6.07D-02 BMatP= 2.01D-01
 IDIUse=3 WtCom= 5.90D-01 WtEn= 4.10D-01
 Coeff-Com:  0.327D+00 0.673D+00
 Coeff-En:   0.217D+00 0.783D+00
 Coeff:      0.282D+00 0.718D+00
 Gap=     0.562 Goal=   None    Shift=    0.000
 RMSDP=1.31D-03 MaxDP=3.31D-02 DE=-5.04D-02 OVMax= 6.63D-02

 Cycle   3  Pass 1  IDiag  1:
 E= -76.0531332964724     Delta-E=       -0.036131385047 Rises=F Damp=F
 DIIS: error= 8.53D-03 at cycle   3 NSaved=   3.
 NSaved= 3 IEnMin= 3 EnMin= -76.0531332964724     IErMin= 3 ErrMin= 8.53D-03
 ErrMax= 8.53D-03  0.00D+00 EMaxC= 1.00D-01 BMatC= 2.94D-03 BMatP= 6.07D-02
 IDIUse=3 WtCom= 9.15D-01 WtEn= 8.53D-02
 Coeff-Com: -0.312D-01 0.149D+00 0.882D+00
 Coeff-En:   0.000D+00 0.000D+00 0.100D+01
 Coeff:     -0.285D-01 0.136D+00 0.892D+00
 Gap=     0.532 Goal=   None    Shift=    0.000
 RMSDP=2.24D-04 MaxDP=4.28D-03 DE=-3.61D-02 OVMax= 1.30D-02

 Cycle   4  Pass 1  IDiag  1:
 E= -76.0549912718523     Delta-E=       -0.001857975380 Rises=F Damp=F
 DIIS: error= 7.41D-04 at cycle   4 NSaved=   4.
 NSaved= 4 IEnMin= 4 EnMin= -76.0549912718523     IErMin= 4 ErrMin= 7.41D-04
 ErrMax= 7.41D-04  0.00D+00 EMaxC= 1.00D-01 BMatC= 1.65D-05 BMatP= 2.94D-03
 IDIUse=3 WtCom= 9.93D-01 WtEn= 7.41D-03
 Coeff-Com:  0.666D-02-0.552D-01-0.235D+00 0.128D+01
 Coeff-En:   0.000D+00 0.000D+00 0.000D+00 0.100D+01
 Coeff:      0.661D-02-0.548D-01-0.234D+00 0.128D+01
 Gap=     0.534 Goal=   None    Shift=    0.000
 RMSDP=4.12D-05 MaxDP=7.65D-04 DE=-1.86D-03 OVMax= 2.52D-03

 Cycle   5  Pass 1  IDiag  1:
 E= -76.0550197065520     Delta-E=       -0.000028434700 Rises=F Damp=F
 DIIS: error= 2.09D-04 at cycle   5 NSaved=   5.
 NSaved= 5 IEnMin= 5 EnMin= -76.0550197065520     IErMin= 5 ErrMin= 2.09D-04
 ErrMax= 2.09D-04  0.00D+00 EMaxC= 1.00D-01 BMatC= 8.54D-07 BMatP= 1.65D-05
 IDIUse=3 WtCom= 9.98D-01 WtEn= 2.09D-03
 Coeff-Com:  0.632D-03 0.255D-03-0.416D-02-0.260D+00 0.126D+01
 Coeff-En:   0.000D+00 0.000D+00 0.000D+00 0.000D+00 0.100D+01
 Coeff:      0.630D-03 0.254D-03-0.415D-02-0.260D+00 0.126D+01
 Gap=     0.535 Goal=   None    Shift=    0.000
 RMSDP=1.32D-05 MaxDP=2.57D-04 DE=-2.84D-05 OVMax= 8.68D-04

 Cycle   6  Pass 1  IDiag  1:
 E= -76.0550219457311     Delta-E=       -0.000002239179 Rises=F Damp=F
 DIIS: error= 3.45D-05 at cycle   6 NSaved=   6.
 NSaved= 6 IEnMin= 6 EnMin= -76.0550219457311     IErMin= 6 ErrMin= 3.45D-05
 ErrMax= 3.45D-05  0.00D+00 EMaxC= 1.00D-01 BMatC= 2.71D-08 BMatP= 8.54D-07
 IDIUse=1 WtCom= 1.00D+00 WtEn= 0.00D+00
 Coeff-Com: -0.343D-03 0.178D-02 0.813D-02 0.938D-02-0.309D+00 0.129D+01
 Coeff:     -0.343D-03 0.178D-02 0.813D-02 0.938D-02-0.309D+00 0.129D+01
 Gap=     0.535 Goal=   None    Shift=    0.000
 RMSDP=2.84D-06 MaxDP=6.64D-05 DE=-2.24D-06 OVMax= 1.99D-04

 Cycle   7  Pass 1  IDiag  1:
 E= -76.0550220334794     Delta-E=       -0.000000087748 Rises=F Damp=F
 DIIS: error= 6.03D-06 at cycle   7 NSaved=   7.
 NSaved= 7 IEnMin= 7 EnMin= -76.0550220334794     IErMin= 7 ErrMin= 6.03D-06
 ErrMax= 6.03D-06  0.00D+00 EMaxC= 1.00D-01 BMatC= 1.43D-09 BMatP= 2.71D-08
 IDIUse=1 WtCom= 1.00D+00 WtEn= 0.00D+00
 Coeff-Com:  0.348D-04-0.399D-03-0.173D-02 0.161D-01-0.157D-01-0.214D+00
 Coeff-Com:  0.122D+01
 Coeff:      0.348D-04-0.399D-03-0.173D-02 0.161D-01-0.157D-01-0.214D+00
 Coeff:      0.122D+01
 Gap=     0.535 Goal=   None    Shift=    0.000
 RMSDP=4.24D-07 MaxDP=1.08D-05 DE=-8.77D-08 OVMax= 3.86D-05

 Cycle   8  Pass 1  IDiag  1:
 E= -76.0550220368201     Delta-E=       -0.000000003341 Rises=F Damp=F
 DIIS: error= 1.68D-06 at cycle   8 NSaved=   8.
 NSaved= 8 IEnMin= 8 EnMin= -76.0550220368201     IErMin= 8 ErrMin= 1.68D-06
 ErrMax= 1.68D-06  0.00D+00 EMaxC= 1.00D-01 BMatC= 8.13D-11 BMatP= 1.43D-09
 IDIUse=1 WtCom= 1.00D+00 WtEn= 0.00D+00
 Coeff-Com:  0.934D-05 0.112D-04 0.967D-04-0.544D-02 0.213D-01-0.422D-02
 Coeff-Com: -0.386D+00 0.137D+01
 Coeff:      0.934D-05 0.112D-04 0.967D-04-0.544D-02 0.213D-01-0.422D-02
 Coeff:     -0.386D+00 0.137D+01
 Gap=     0.535 Goal=   None    Shift=    0.000
 RMSDP=1.36D-07 MaxDP=3.07D-06 DE=-3.34D-09 OVMax= 9.36D-06

 Cycle   9  Pass 1  IDiag  1:
 E= -76.0550220370275     Delta-E=       -0.000000000207 Rises=F Damp=F
 DIIS: error= 2.18D-07 at cycle   9 NSaved=   9.
 NSaved= 9 IEnMin= 9 EnMin= -76.0550220370275     IErMin= 9 ErrMin= 2.18D-07
 ErrMax= 2.18D-07  0.00D+00 EMaxC= 1.00D-01 BMatC= 1.12D-12 BMatP= 8.13D-11
 IDIUse=1 WtCom= 1.00D+00 WtEn= 0.00D+00
 Coeff-Com: -0.202D-05 0.534D-05 0.108D-04 0.545D-03-0.268D-02 0.312D-02
 Coeff-Com:  0.488D-01-0.262D+00 0.121D+01
 Coeff:     -0.202D-05 0.534D-05 0.108D-04 0.545D-03-0.268D-02 0.312D-02
 Coeff:      0.488D-01-0.262D+00 0.121D+01
 Gap=     0.535 Goal=   None    Shift=    0.000
 RMSDP=1.96D-08 MaxDP=3.93D-07 DE=-2.07D-10 OVMax= 8.74D-07

 Cycle  10  Pass 1  IDiag  1:
 E= -76.0550220370301     Delta-E=       -0.000000000003 Rises=F Damp=F
 DIIS: error= 4.33D-08 at cycle  10 NSaved=  10.
 NSaved=10 IEnMin=10 EnMin= -76.0550220370301     IErMin=10 ErrMin= 4.33D-08
 ErrMax= 4.33D-08  0.00D+00 EMaxC= 1.00D-01 BMatC= 5.51D-14 BMatP= 1.12D-12
 IDIUse=1 WtCom= 1.00D+00 WtEn= 0.00D+00
 Coeff-Com: -0.140D-07-0.124D-05-0.541D-05 0.102D-03-0.260D-03-0.641D-03
 Coeff-Com:  0.842D-02-0.163D-01-0.175D+00 0.118D+01
 Coeff:     -0.140D-07-0.124D-05-0.541D-05 0.102D-03-0.260D-03-0.641D-03
 Coeff:      0.842D-02-0.163D-01-0.175D+00 0.118D+01
 Gap=     0.535 Goal=   None    Shift=    0.000
 RMSDP=4.55D-09 MaxDP=9.28D-08 DE=-2.63D-12 OVMax= 1.98D-07

 SCF Done:  E(RHF) =  -76.0550220370     A.U. after   10 cycles
            NFock= 10  Conv=0.46D-08     -V/T= 2.0027
 KE= 7.584715034427D+01 PE=-1.984422899543D+02 EE= 3.760661242464D+01
 Leave Link  502 at Wed Feb  8 13:56:45 2023, MaxMem=   754974720 cpu:               2.2 elap:               0.6
 (Enter /opt/cluster/programs/g16-c.01/g16/l801.exe)
 Windowed orbitals will be sorted by symmetry type.
 ExpMin= 2.53D-02 ExpMax= 1.53D+04 ExpMxC= 5.22D+02 IAcc=3 IRadAn=         5 AccDes= 0.00D+00
 HarFok:  IExCor=  205 AccDes= 0.00D+00 IRadAn=         5 IDoV=-2 UseB2=F ITyADJ=14
 ICtDFT= 12500011 ScaDFX=  1.000000  1.000000  1.000000  1.000000
 Largest valence mixing into a core orbital is  1.12D-04
 Largest core mixing into a valence orbital is  1.79D-05
 Range of M.O.s used for correlation:     2    92
 NBasis=    92 NAE=     5 NBE=     5 NFC=     1 NFV=     0
 NROrb=     91 NOA=     4 NOB=     4 NVA=    87 NVB=    87

 **** Warning!!: The largest alpha MO coefficient is  0.15243232D+02

 Leave Link  801 at Wed Feb  8 13:56:45 2023, MaxMem=   754974720 cpu:               0.3 elap:               0.1
 (Enter /opt/cluster/programs/g16-c.01/g16/l804.exe)
 Closed-shell transformation, MDV=   754974720 ITran=4 ISComp=2.
 Unit  1 TFree=        277501 TCopy=        343607.
 Semi-Direct transformation.
 ModeAB=           2 MOrb=             4 LenV=     754586778
 LASXX=       736380 LTotXX=      736380 LenRXX=      736380
 LTotAB=      763744 MaxLAS=     2025660 LenRXY=     2025660
 NonZer=     2107560 LenScr=     3929600 LnRSAI=           0
 LnScr1=           0 LExtra=           0 Total=      6691640
 MaxDsk=          -1 SrtSym=           F ITran=            4
 DoSDTr:  NPSUse=  4
 JobTyp=0 Pass  1:  I=   1 to   4.
 (rs|ai) integrals will be sorted in core.
 Complete sort for first half transformation.
 First half transformation complete.
 Complete sort for second half transformation.
 Second half transformation complete.
 Spin components of T(2) and E(2):
     alpha-alpha T2 =       0.8312292471D-02 E2=     -0.3276128448D-01
     alpha-beta  T2 =       0.4845540184D-01 E2=     -0.2045026223D+00
     beta-beta   T2 =       0.8312292471D-02 E2=     -0.3276128448D-01
 ANorm=    0.1032027125D+01
 E2 =    -0.2700251913D+00 EUMP2 =    -0.76325047228320D+02
 Leave Link  804 at Wed Feb  8 13:56:46 2023, MaxMem=   754974720 cpu:               2.4 elap:               0.6
 (Enter /opt/cluster/programs/g16-c.01/g16/l913.exe)
 CIDS:  MDV=   754974720.
 Frozen-core window:  NFC=   1 NFV=   0.
 IFCWin=0 IBDFC=1 NFBD=     0     0 NFCmp=     0     0 NFFFC=     0     0
 Using DD3R+UMP44R for 1st iteration.
 Using DD4RQ for 2nd and later iterations.
 Keep R2 and R3 ints in memory in symmetry-blocked form, NReq=13979827.
 FoFCou: FMM=F IPFlag=           0 FMFlag=           0 FMFlg1=           0
         NFxFlg=           0 DoJE=F BraDBF=F KetDBF=F FulRan=T
         wScrn=  0.000000 ICntrl=       600 IOpCl=  0 I1Cent=           0 NGrid=           0
         NMat0=    1 NMatS0=   4278 NMatT0=    0 NMatD0=    1 NMtDS0=    0 NMtDT0=    0
 Petite list used in FoFCou.
 CIDS: In Core Option IDoMem=           1.
 CCSD(T)
 =======
 Iterations=  50 Convergence= 0.100D-06
 Produce multiple copies of IABC intergrals
 Iteration Nr.   1
 **********************
 DD1Dir will call FoFMem   1 times, MxPair=        20
 NAB=    10 NAA=     0 NBB=     0.
 MP4(R+Q)=  0.41368485D-02
 Maximum subspace dimension=  5
 A-vector RMS=  2.9515133D-03 Max=  1.2836680D-02 conv= 1.00D-05.
 RLE energy=       -0.2681143818
 E3=       -0.22553973D-02        EUMP3=      -0.76327302626D+02
 E4(DQ)=   -0.77462595D-03        UMP4(DQ)=   -0.76328077252D+02
 E4(SDQ)=  -0.27602418D-02        UMP4(SDQ)=  -0.76330062868D+02
 VARIATIONAL ENERGIES WITH THE FIRST-ORDER WAVEFUNCTION:
 DE(Corr)= -0.26810077     E(Corr)=     -76.323122808    
 NORM(A)=   0.10317751D+01
 Iteration Nr.   2
 **********************
 DD1Dir will call FoFMem   1 times, MxPair=        20
 NAB=    10 NAA=     0 NBB=     0.
 A-vector RMS=  3.2484596D-04 Max=  2.3131775D-03 conv= 1.00D-05.
 RLE energy=       -0.2741545341
 DE(Corr)= -0.27375096     E(CORR)=     -76.328772998     Delta=-5.65D-03
 NORM(A)=   0.10340363D+01
 Iteration Nr.   3
 **********************
 DD1Dir will call FoFMem   1 times, MxPair=        20
 NAB=    10 NAA=     0 NBB=     0.
 A-vector RMS=  4.2141957D-04 Max=  2.3907647D-03 conv= 1.00D-05.
 RLE energy=       -0.2744913569
 DE(Corr)= -0.27408790     E(CORR)=     -76.329109934     Delta=-3.37D-04
 NORM(A)=   0.10344954D+01
 Iteration Nr.   4
 **********************
 DD1Dir will call FoFMem   1 times, MxPair=        20
 NAB=    10 NAA=     0 NBB=     0.
 A-vector RMS=  6.6938531D-05 Max=  4.0537179D-04 conv= 1.00D-05.
 RLE energy=       -0.2745277960
 DE(Corr)= -0.27449707     E(CORR)=     -76.329519108     Delta=-4.09D-04
 NORM(A)=   0.10346180D+01
 Iteration Nr.   5
 **********************
 DD1Dir will call FoFMem   1 times, MxPair=        20
 NAB=    10 NAA=     0 NBB=     0.
 A-vector RMS=  3.3146750D-05 Max=  2.0324674D-04 conv= 1.00D-05.
 RLE energy=       -0.2745413333
 DE(Corr)= -0.27453525     E(CORR)=     -76.329557289     Delta=-3.82D-05
 NORM(A)=   0.10346433D+01
 Iteration Nr.   6
 **********************
 DD1Dir will call FoFMem   1 times, MxPair=        20
 NAB=    10 NAA=     0 NBB=     0.
 A-vector RMS=  7.9390679D-06 Max=  4.0957087D-05 conv= 1.00D-05.
 RLE energy=       -0.2745372601
 DE(Corr)= -0.27453838     E(CORR)=     -76.329560421     Delta=-3.13D-06
 NORM(A)=   0.10346455D+01
 Iteration Nr.   7
 **********************
 DD1Dir will call FoFMem   1 times, MxPair=        20
 NAB=    10 NAA=     0 NBB=     0.
 A-vector RMS=  3.1068456D-06 Max=  1.7122721D-05 conv= 1.00D-05.
 RLE energy=       -0.2745373726
 DE(Corr)= -0.27453841     E(CORR)=     -76.329560449     Delta=-2.85D-08
 NORM(A)=   0.10346462D+01
 Iteration Nr.   8
 **********************
 DD1Dir will call FoFMem   1 times, MxPair=        20
 NAB=    10 NAA=     0 NBB=     0.
 A-vector RMS=  1.1628942D-06 Max=  5.5758228D-06 conv= 1.00D-05.
 RLE energy=       -0.2745379777
 DE(Corr)= -0.27453812     E(CORR)=     -76.329560153     Delta= 2.97D-07
 NORM(A)=   0.10346466D+01
 Iteration Nr.   9
 **********************
 DD1Dir will call FoFMem   1 times, MxPair=        20
 NAB=    10 NAA=     0 NBB=     0.
 A-vector RMS=  3.7039197D-07 Max=  2.1538949D-06 conv= 1.00D-05.
 RLE energy=       -0.2745381157
 DE(Corr)= -0.27453814     E(CORR)=     -76.329560173     Delta=-2.07D-08
 NORM(A)=   0.10346468D+01
 CI/CC converged in    9 iterations to DelEn=-2.07D-08 Conv= 1.00D-07 ErrA1= 3.70D-07 Conv= 1.00D-05
 Wavefunction amplitudes converged. E(Corr)=     -76.329560173    
 Largest amplitude= 2.09D-02
 IPart=  4 IA=    6   11.23% done.
 IPart=  3 IA=   11   21.79% done.
 IPart=  3 IA=   16   31.68% done.
 IPart=  1 IA=   21   40.90% done.
 IPart=  1 IA=   27   51.08% done.
 IPart=  1 IA=   33   60.30% done.
 IPart=  2 IA=   41   71.10% done.
 IPart=  1 IA=   49   80.19% done.
 IPart=  1 IA=   61   90.62% done.
 Time for triples=        6.27 seconds.
 T4(CCSD)= -0.92010776D-02
 T5(CCSD)=  0.33960693D-03
 CCSD(T)= -0.76338421644D+02
 Discarding MO integrals.
 Leave Link  913 at Wed Feb  8 13:56:49 2023, MaxMem=   754974720 cpu:              12.2 elap:               3.1
 (Enter /opt/cluster/programs/g16-c.01/g16/l601.exe)
 Copying SCF densities to generalized density rwf, IOpCl= 0 IROHF=0.

 **********************************************************************

            Population analysis using the SCF Density.

 **********************************************************************

 Orbital symmetries:
       Occupied  (A') (A') (A') (A') (A")
       Virtual   (A') (A') (A') (A") (A') (A') (A') (A') (A") (A")
                 (A') (A') (A') (A') (A') (A') (A') (A") (A") (A')
                 (A") (A') (A') (A") (A') (A") (A') (A') (A') (A")
                 (A') (A") (A') (A') (A") (A") (A') (A') (A') (A')
                 (A') (A") (A") (A') (A') (A") (A') (A') (A") (A')
                 (A') (A") (A') (A') (A') (A") (A") (A') (A') (A")
                 (A") (A") (A') (A') (A') (A') (A') (A") (A') (A')
                 (A") (A') (A') (A') (A") (A') (A") (A") (A') (A")
                 (A") (A') (A') (A') (A') (A') (A')
 The electronic state is 1-A'.
 Alpha  occ. eigenvalues --  -20.56783  -1.33553  -0.71736  -0.56452  -0.50572
 Alpha virt. eigenvalues --    0.02950   0.04709   0.13679   0.15854   0.17166
 Alpha virt. eigenvalues --    0.18123   0.22779   0.24271   0.26208   0.30794
 Alpha virt. eigenvalues --    0.31530   0.36409   0.42974   0.46325   0.60340
 Alpha virt. eigenvalues --    0.64732   0.71287   0.71693   0.73041   0.81606
 Alpha virt. eigenvalues --    0.84010   0.89419   0.90587   0.91438   0.92631
 Alpha virt. eigenvalues --    0.93318   0.97831   1.01164   1.04091   1.08246
 Alpha virt. eigenvalues --    1.11457   1.16063   1.16110   1.27250   1.51072
 Alpha virt. eigenvalues --    1.59094   1.59517   1.72256   1.80394   1.97290
 Alpha virt. eigenvalues --    2.09873   2.25161   2.31479   2.31658   2.39357
 Alpha virt. eigenvalues --    2.39519   2.43034   2.48507   2.71831   2.71992
 Alpha virt. eigenvalues --    2.73772   2.86154   2.89607   3.57480   3.74866
 Alpha virt. eigenvalues --    3.98331   4.06345   4.16492   4.21399   4.33316
 Alpha virt. eigenvalues --    4.37485   4.37917   4.44636   4.49432   4.63339
 Alpha virt. eigenvalues --    4.70136   5.02786   5.10378   5.24581   5.30256
 Alpha virt. eigenvalues --    5.43066   5.71630   6.03479   6.56572   6.69437
 Alpha virt. eigenvalues --    6.78048   7.11267   7.19780   7.25467   7.26989
 Alpha virt. eigenvalues --    7.36919   7.39625   7.50051   7.77335   7.94823
 Alpha virt. eigenvalues --    8.60653  15.16504
          Condensed to atoms (all electrons):
               1          2          3
     1  O    7.944084   0.267186   0.267751
     2  H    0.267186   0.451222   0.023147
     3  H    0.267751   0.023147   0.488527
 Mulliken charges:
               1
     1  O   -0.479020
     2  H    0.258445
     3  H    0.220575
 Sum of Mulliken charges =  -0.00000
 Mulliken charges with hydrogens summed into heavy atoms:
               1
     1  O   -0.000000
 Electronic spatial extent (au):  <R**2>=             19.8430
 Charge=             -0.0000 electrons
 Dipole moment (field-independent basis, Debye):
    X=             -0.0163    Y=             -1.8665    Z=              0.0000  Tot=              1.8666
 Quadrupole moment (field-independent basis, Debye-Ang):
   XX=             -3.8255   YY=             -6.4979   ZZ=             -7.6344
   XY=             -0.1717   XZ=              0.0000   YZ=              0.0000
 Traceless Quadrupole moment (field-independent basis, Debye-Ang):
   XX=              2.1605   YY=             -0.5120   ZZ=             -1.6485
   XY=             -0.1717   XZ=              0.0000   YZ=              0.0000
 Octapole moment (field-independent basis, Debye-Ang**2):
  XXX=             -0.0613  YYY=             -0.9671  ZZZ=              0.0000  XYY=              0.1151
  XXY=             -1.4935  XXZ=              0.0000  XZZ=             -0.0256  YZZ=             -0.2202
  YYZ=              0.0000  XYZ=             -0.0000
 Hexadecapole moment (field-independent basis, Debye-Ang**3):
 XXXX=             -5.8153 YYYY=             -7.4317 ZZZZ=             -6.8653 XXXY=             -0.0281
 XXXZ=             -0.0000 YYYX=             -0.0002 YYYZ=              0.0000 ZZZX=             -0.0000
 ZZZY=              0.0000 XXYY=             -1.9574 XXZZ=             -2.5637 YYZZ=             -2.4216
 XXYZ=             -0.0000 YYXZ=             -0.0000 ZZXY=              0.0389
 N-N= 8.933505148395D+00 E-N=-1.984422897239D+02  KE= 7.584715034427D+01
 Symmetry A'   KE= 7.138609286669D+01
 Symmetry A"   KE= 4.461057477583D+00
 Leave Link  601 at Wed Feb  8 13:56:49 2023, MaxMem=   754974720 cpu:               0.3 elap:               0.1
 (Enter /opt/cluster/programs/g16-c.01/g16/l9999.exe)
 Unable to Open any file for archive entry.
 1\1\GINC-NODE65\SP\RCCSD(T)-FC\Aug-CC-pVTZ\H2O1\BOITTIER\08-Feb-2023\0
 \\#P CCSD(T)/aug-cc-pVTZ scf(maxcycle=200)\\Gaussian input\\0,1\O,0,0.
 ,0.11751,0.\H,0,0.7973622306,-0.5007896629,0.\H,0,-0.8325289106,-0.358
 4906439,0.\\Version=ES64L-G16RevC.01\State=1-A'\HF=-76.055022\MP2=-76.
 3250472\MP3=-76.3273026\MP4D=-76.3322141\MP4DQ=-76.3280773\MP4SDQ=-76.
 3300629\CCSD=-76.3295602\CCSD(T)=-76.3384216\RMSD=4.551e-09\PG=CS [SG(
 H2O1)]\\@
 The archive entry for this job was punched.


 EVANS BOLDLY PUT 50 ATM. OF ETHYLENE IN A CELL WITH 25 ATM. OF OXYGEN.
 THE APPARATUS SUBSEQUENTLY BLEW UP, BUT LUCKILY NOT BEFORE HE
 OBTAINED THE SPECTRA SHOWN IN FIGURE 8.
 A.J.MERER AND R.S.MULLIKEN, CHEM.REV. 69, 645 (1969)
 Job cpu time:       0 days  0 hours  0 minutes 19.9 seconds.
 Elapsed time:       0 days  0 hours  0 minutes  5.2 seconds.
 File lengths (MBytes):  RWF=     75 Int=      0 D2E=      0 Chk=      2 Scr=      1
 Normal termination of Gaussian 16 at Wed Feb  8 13:56:49 2023.
