 Entering Gaussian System, Link 0=/opt/cluster/programs/g16-c.01/g16/g16
 Input=/scratch/boittier/jobs/tmp.7261711/gaussian_44_water_ccsdt_atz.com
 Output=/scratch/boittier/jobs/tmp.7261711/gaussian_44_water_ccsdt_atz.out
 Initial command:
 /opt/cluster/programs/g16-c.01/g16/l1.exe "/scratch/boittier/jobs/tmp.7261711/Gau-102780.inp" -scrdir="/scratch/boittier/jobs/tmp.7261711/"
 Entering Link 1 = /opt/cluster/programs/g16-c.01/g16/l1.exe PID=    102781.
  
 Copyright (c) 1988-2019, Gaussian, Inc.  All Rights Reserved.
  
 This is part of the Gaussian(R) 16 program.  It is based on
 the Gaussian(R) 09 system (copyright 2009, Gaussian, Inc.),
 the Gaussian(R) 03 system (copyright 2003, Gaussian, Inc.),
 the Gaussian(R) 98 system (copyright 1998, Gaussian, Inc.),
 the Gaussian(R) 94 system (copyright 1995, Gaussian, Inc.),
 the Gaussian 92(TM) system (copyright 1992, Gaussian, Inc.),
 the Gaussian 90(TM) system (copyright 1990, Gaussian, Inc.),
 the Gaussian 88(TM) system (copyright 1988, Gaussian, Inc.),
 the Gaussian 86(TM) system (copyright 1986, Carnegie Mellon
 University), and the Gaussian 82(TM) system (copyright 1983,
 Carnegie Mellon University). Gaussian is a federally registered
 trademark of Gaussian, Inc.
  
 This software contains proprietary and confidential information,
 including trade secrets, belonging to Gaussian, Inc.
  
 This software is provided under written license and may be
 used, copied, transmitted, or stored only in accord with that
 written license.
  
 The following legend is applicable only to US Government
 contracts under FAR:
  
                    RESTRICTED RIGHTS LEGEND
  
 Use, reproduction and disclosure by the US Government is
 subject to restrictions as set forth in subparagraphs (a)
 and (c) of the Commercial Computer Software - Restricted
 Rights clause in FAR 52.227-19.
  
 Gaussian, Inc.
 340 Quinnipiac St., Bldg. 40, Wallingford CT 06492
  
  
 ---------------------------------------------------------------
 Warning -- This program may not be used in any manner that
 competes with the business of Gaussian, Inc. or will provide
 assistance to any competitor of Gaussian, Inc.  The licensee
 of this program is prohibited from giving any competitor of
 Gaussian, Inc. access to this program.  By using this program,
 the user acknowledges that Gaussian, Inc. is engaged in the
 business of creating and licensing software in the field of
 computational chemistry and represents and warrants to the
 licensee that it is not a competitor of Gaussian, Inc. and that
 it will not use this program in any manner prohibited above.
 ---------------------------------------------------------------
  

 Cite this work as:
 Gaussian 16, Revision C.01,
 M. J. Frisch, G. W. Trucks, H. B. Schlegel, G. E. Scuseria, 
 M. A. Robb, J. R. Cheeseman, G. Scalmani, V. Barone, 
 G. A. Petersson, H. Nakatsuji, X. Li, M. Caricato, A. V. Marenich, 
 J. Bloino, B. G. Janesko, R. Gomperts, B. Mennucci, H. P. Hratchian, 
 J. V. Ortiz, A. F. Izmaylov, J. L. Sonnenberg, D. Williams-Young, 
 F. Ding, F. Lipparini, F. Egidi, J. Goings, B. Peng, A. Petrone, 
 T. Henderson, D. Ranasinghe, V. G. Zakrzewski, J. Gao, N. Rega, 
 G. Zheng, W. Liang, M. Hada, M. Ehara, K. Toyota, R. Fukuda, 
 J. Hasegawa, M. Ishida, T. Nakajima, Y. Honda, O. Kitao, H. Nakai, 
 T. Vreven, K. Throssell, J. A. Montgomery, Jr., J. E. Peralta, 
 F. Ogliaro, M. J. Bearpark, J. J. Heyd, E. N. Brothers, K. N. Kudin, 
 V. N. Staroverov, T. A. Keith, R. Kobayashi, J. Normand, 
 K. Raghavachari, A. P. Rendell, J. C. Burant, S. S. Iyengar, 
 J. Tomasi, M. Cossi, J. M. Millam, M. Klene, C. Adamo, R. Cammi, 
 J. W. Ochterski, R. L. Martin, K. Morokuma, O. Farkas, 
 J. B. Foresman, and D. J. Fox, Gaussian, Inc., Wallingford CT, 2019.
 
 ******************************************
 Gaussian 16:  ES64L-G16RevC.01  3-Jul-2019
                 8-Feb-2023 
 ******************************************
 %nproc=4
 Will use up to    4 processors via shared memory.
 %mem=5760MB
 %chk=gaussian_44_water_ccsdt_atz.chk
 ----------------------------------------
 #P CCSD(T)/aug-cc-pVTZ scf(maxcycle=200)
 ----------------------------------------
 1/38=1,172=1/1;
 2/12=2,17=6,18=5,40=1/2;
 3/5=16,6=1,7=10,11=9,25=1,30=1/1,2,3;
 4//1;
 5/5=2,7=200,38=5/2;
 8/6=4,9=120000,10=1/1,4;
 9/5=7,14=2/13;
 6/7=2,8=2,9=2,10=2/1;
 99/5=1,9=1/99;
 Leave Link    1 at Wed Feb  8 13:49:56 2023, MaxMem=   754974720 cpu:               0.2 elap:               0.1
 (Enter /opt/cluster/programs/g16-c.01/g16/l101.exe)
 --------------
 Gaussian input
 --------------
 Symbolic Z-matrix:
 Charge =  0 Multiplicity = 1
 O                     0.        0.11751   0. 
 H                     0.71834  -0.43951   0. 
 H                    -0.65182  -0.65269   0. 
 
 ITRead=  0  0  0
 MicOpt= -1 -1 -1
 NAtoms=      3 NQM=        3 NQMF=       0 NMMI=      0 NMMIF=      0
                NMic=       0 NMicF=      0.
                    Isotopes and Nuclear Properties:
 (Nuclear quadrupole moments (NQMom) in fm**2, nuclear magnetic moments (NMagM)
  in nuclear magnetons)

  Atom         1           2           3
 IAtWgt=          16           1           1
 AtmWgt=  15.9949146   1.0078250   1.0078250
 NucSpn=           0           1           1
 AtZEff=  -0.0000000  -0.0000000  -0.0000000
 NQMom=    0.0000000   0.0000000   0.0000000
 NMagM=    0.0000000   2.7928460   2.7928460
 AtZNuc=   8.0000000   1.0000000   1.0000000
 Leave Link  101 at Wed Feb  8 13:49:56 2023, MaxMem=   754974720 cpu:               0.4 elap:               0.2
 (Enter /opt/cluster/programs/g16-c.01/g16/l202.exe)
                          Input orientation:                          
 ---------------------------------------------------------------------
 Center     Atomic      Atomic             Coordinates (Angstroms)
 Number     Number       Type             X           Y           Z
 ---------------------------------------------------------------------
      1          8           0        0.000000    0.117510    0.000000
      2          1           0        0.718337   -0.439511    0.000000
      3          1           0       -0.651820   -0.652693    0.000000
 ---------------------------------------------------------------------
                    Distance matrix (angstroms):
                    1          2          3
     1  O    0.000000
     2  H    0.909000   0.000000
     3  H    1.009000   1.386642   0.000000
 Stoichiometry    H2O
 Framework group  CS[SG(H2O)]
 Deg. of freedom     3
 Full point group                 CS      NOp   2
 Largest Abelian subgroup         CS      NOp   2
 Largest concise Abelian subgroup C1      NOp   1
                         Standard orientation:                         
 ---------------------------------------------------------------------
 Center     Atomic      Atomic             Coordinates (Angstroms)
 Number     Number       Type             X           Y           Z
 ---------------------------------------------------------------------
      1          8           0        0.000000    0.132889    0.000000
      2          1           0        0.689555   -0.459390    0.000000
      3          1           0       -0.689555   -0.603721    0.000000
 ---------------------------------------------------------------------
 Rotational constants (GHZ):         672.0112845         501.7844360         287.2772472
 Leave Link  202 at Wed Feb  8 13:49:56 2023, MaxMem=   754974720 cpu:               0.0 elap:               0.0
 (Enter /opt/cluster/programs/g16-c.01/g16/l301.exe)
 Standard basis: Aug-CC-pVTZ (5D, 7F)
 Ernie: Thresh=  0.10000D-02 Tol=  0.10000D-05 Strict=F.
 Ernie:  3 primitive shells out of 52 were deleted.
 There are    73 symmetry adapted cartesian basis functions of A'  symmetry.
 There are    32 symmetry adapted cartesian basis functions of A"  symmetry.
 There are    62 symmetry adapted basis functions of A'  symmetry.
 There are    30 symmetry adapted basis functions of A"  symmetry.
    92 basis functions,   126 primitive gaussians,   105 cartesian basis functions
     5 alpha electrons        5 beta electrons
       nuclear repulsion energy         9.2345068827 Hartrees.
 IExCor=    0 DFT=F Ex=HF Corr=None ExCW=0 ScaHFX=  1.000000
 ScaDFX=  1.000000  1.000000  1.000000  1.000000 ScalE2=  1.000000  1.000000
 IRadAn=      5 IRanWt=     -1 IRanGd=            0 ICorTp=0 IEmpDi=  4
 NAtoms=    3 NActive=    3 NUniq=    3 SFac= 1.00D+00 NAtFMM=   60 NAOKFM=F Big=F
 Integral buffers will be    131072 words long.
 Raffenetti 1 integral format.
 Two-electron integral symmetry is turned on.
 Leave Link  301 at Wed Feb  8 13:49:56 2023, MaxMem=   754974720 cpu:               0.2 elap:               0.1
 (Enter /opt/cluster/programs/g16-c.01/g16/l302.exe)
 NPDir=0 NMtPBC=     1 NCelOv=     1 NCel=       1 NClECP=     1 NCelD=      1
         NCelK=      1 NCelE2=     1 NClLst=     1 CellRange=     0.0.
 One-electron integrals computed using PRISM.
 One-electron integral symmetry used in STVInt
 NBasis=    92 RedAO= T EigKep=  3.53D-04  NBF=    62    30
 NBsUse=    92 1.00D-06 EigRej= -1.00D+00 NBFU=    62    30
 Leave Link  302 at Wed Feb  8 13:49:57 2023, MaxMem=   754974720 cpu:               3.8 elap:               1.3
 (Enter /opt/cluster/programs/g16-c.01/g16/l303.exe)
 DipDrv:  MaxL=1.
 Leave Link  303 at Wed Feb  8 13:49:58 2023, MaxMem=   754974720 cpu:               0.6 elap:               0.3
 (Enter /opt/cluster/programs/g16-c.01/g16/l401.exe)
 ExpMin= 2.53D-02 ExpMax= 1.53D+04 ExpMxC= 5.22D+02 IAcc=3 IRadAn=         5 AccDes= 0.00D+00
 Harris functional with IExCor=  205 and IRadAn=       5 diagonalized for initial guess.
 HarFok:  IExCor=  205 AccDes= 0.00D+00 IRadAn=         5 IDoV= 1 UseB2=F ITyADJ=14
 ICtDFT=  3500011 ScaDFX=  1.000000  1.000000  1.000000  1.000000
 FoFCou: FMM=F IPFlag=           0 FMFlag=      100000 FMFlg1=           0
         NFxFlg=           0 DoJE=T BraDBF=F KetDBF=T FulRan=T
         wScrn=  0.000000 ICntrl=       500 IOpCl=  0 I1Cent=   200000004 NGrid=           0
         NMat0=    1 NMatS0=      1 NMatT0=    0 NMatD0=    1 NMtDS0=    0 NMtDT0=    0
 Petite list used in FoFCou.
 Harris En= -76.1447258624407    
 JPrj=0 DoOrth=F DoCkMO=F.
 Initial guess orbital symmetries:
       Occupied  (A') (A') (A') (A') (A")
       Virtual   (A') (A') (A') (A") (A') (A') (A') (A') (A") (A")
                 (A') (A') (A') (A') (A') (A') (A') (A") (A") (A")
                 (A') (A') (A') (A") (A') (A") (A') (A') (A') (A")
                 (A') (A') (A") (A') (A') (A") (A") (A') (A') (A')
                 (A') (A") (A") (A') (A') (A') (A") (A') (A') (A")
                 (A') (A') (A") (A') (A') (A") (A') (A") (A") (A')
                 (A') (A") (A") (A') (A') (A') (A") (A') (A') (A')
                 (A") (A') (A') (A') (A") (A') (A") (A") (A') (A")
                 (A') (A") (A') (A') (A') (A') (A')
 The electronic state of the initial guess is 1-A'.
 Leave Link  401 at Wed Feb  8 13:49:59 2023, MaxMem=   754974720 cpu:               2.9 elap:               1.5
 (Enter /opt/cluster/programs/g16-c.01/g16/l502.exe)
 Keep R1 ints in memory in symmetry-blocked form, NReq=13818732.
 FoFCou: FMM=F IPFlag=           0 FMFlag=           0 FMFlg1=           0
         NFxFlg=           0 DoJE=F BraDBF=F KetDBF=F FulRan=T
         wScrn=  0.000000 ICntrl=       600 IOpCl=  0 I1Cent=           0 NGrid=           0
         NMat0=    1 NMatS0=   4278 NMatT0=    0 NMatD0=    1 NMtDS0=    0 NMtDT0=    0
 Petite list used in FoFCou.
 Closed shell SCF:
 Using DIIS extrapolation, IDIIS=  1040.
 NGot=   754974720 LenX=   750285684 LenY=   750274218
 Requested convergence on RMS density matrix=1.00D-08 within 200 cycles.
 Requested convergence on MAX density matrix=1.00D-06.
 Requested convergence on             energy=1.00D-06.
 No special actions if energy rises.

 Cycle   1  Pass 1  IDiag  1:
 E= -75.9598952325646    
 DIIS: error= 5.47D-02 at cycle   1 NSaved=   1.
 NSaved= 1 IEnMin= 1 EnMin= -75.9598952325646     IErMin= 1 ErrMin= 5.47D-02
 ErrMax= 5.47D-02  0.00D+00 EMaxC= 1.00D-01 BMatC= 2.05D-01 BMatP= 2.05D-01
 IDIUse=3 WtCom= 4.53D-01 WtEn= 5.47D-01
 Coeff-Com:  0.100D+01
 Coeff-En:   0.100D+01
 Coeff:      0.100D+01
 Gap=     0.455 Goal=   None    Shift=    0.000
 GapD=    0.455 DampG=2.000 DampE=0.500 DampFc=1.0000 IDamp=-1.
 RMSDP=2.20D-03 MaxDP=4.88D-02              OVMax= 1.28D-01

 Cycle   2  Pass 1  IDiag  1:
 E= -76.0122126205131     Delta-E=       -0.052317387949 Rises=F Damp=F
 DIIS: error= 3.64D-02 at cycle   2 NSaved=   2.
 NSaved= 2 IEnMin= 2 EnMin= -76.0122126205131     IErMin= 2 ErrMin= 3.64D-02
 ErrMax= 3.64D-02  0.00D+00 EMaxC= 1.00D-01 BMatC= 6.17D-02 BMatP= 2.05D-01
 IDIUse=3 WtCom= 6.36D-01 WtEn= 3.64D-01
 Coeff-Com:  0.327D+00 0.673D+00
 Coeff-En:   0.211D+00 0.789D+00
 Coeff:      0.285D+00 0.715D+00
 Gap=     0.568 Goal=   None    Shift=    0.000
 RMSDP=1.34D-03 MaxDP=3.61D-02 DE=-5.23D-02 OVMax= 6.59D-02

 Cycle   3  Pass 1  IDiag  1:
 E= -76.0489324234872     Delta-E=       -0.036719802974 Rises=F Damp=F
 DIIS: error= 7.17D-03 at cycle   3 NSaved=   3.
 NSaved= 3 IEnMin= 3 EnMin= -76.0489324234872     IErMin= 3 ErrMin= 7.17D-03
 ErrMax= 7.17D-03  0.00D+00 EMaxC= 1.00D-01 BMatC= 2.74D-03 BMatP= 6.17D-02
 IDIUse=3 WtCom= 9.28D-01 WtEn= 7.17D-02
 Coeff-Com: -0.312D-01 0.142D+00 0.889D+00
 Coeff-En:   0.000D+00 0.000D+00 0.100D+01
 Coeff:     -0.289D-01 0.132D+00 0.897D+00
 Gap=     0.540 Goal=   None    Shift=    0.000
 RMSDP=2.16D-04 MaxDP=4.15D-03 DE=-3.67D-02 OVMax= 1.25D-02

 Cycle   4  Pass 1  IDiag  1:
 E= -76.0506635004845     Delta-E=       -0.001731076997 Rises=F Damp=F
 DIIS: error= 5.90D-04 at cycle   4 NSaved=   4.
 NSaved= 4 IEnMin= 4 EnMin= -76.0506635004845     IErMin= 4 ErrMin= 5.90D-04
 ErrMax= 5.90D-04  0.00D+00 EMaxC= 1.00D-01 BMatC= 1.36D-05 BMatP= 2.74D-03
 IDIUse=3 WtCom= 9.94D-01 WtEn= 5.90D-03
 Coeff-Com:  0.761D-02-0.554D-01-0.268D+00 0.132D+01
 Coeff-En:   0.000D+00 0.000D+00 0.000D+00 0.100D+01
 Coeff:      0.757D-02-0.551D-01-0.266D+00 0.131D+01
 Gap=     0.542 Goal=   None    Shift=    0.000
 RMSDP=4.03D-05 MaxDP=7.10D-04 DE=-1.73D-03 OVMax= 2.35D-03

 Cycle   5  Pass 1  IDiag  1:
 E= -76.0506893880622     Delta-E=       -0.000025887578 Rises=F Damp=F
 DIIS: error= 1.77D-04 at cycle   5 NSaved=   5.
 NSaved= 5 IEnMin= 5 EnMin= -76.0506893880622     IErMin= 5 ErrMin= 1.77D-04
 ErrMax= 1.77D-04  0.00D+00 EMaxC= 1.00D-01 BMatC= 7.25D-07 BMatP= 1.36D-05
 IDIUse=3 WtCom= 9.98D-01 WtEn= 1.77D-03
 Coeff-Com:  0.609D-04 0.320D-02 0.149D-01-0.294D+00 0.128D+01
 Coeff-En:   0.000D+00 0.000D+00 0.000D+00 0.000D+00 0.100D+01
 Coeff:      0.608D-04 0.320D-02 0.149D-01-0.294D+00 0.128D+01
 Gap=     0.542 Goal=   None    Shift=    0.000
 RMSDP=1.14D-05 MaxDP=2.43D-04 DE=-2.59D-05 OVMax= 7.53D-04

 Cycle   6  Pass 1  IDiag  1:
 E= -76.0506911514857     Delta-E=       -0.000001763424 Rises=F Damp=F
 DIIS: error= 2.56D-05 at cycle   6 NSaved=   6.
 NSaved= 6 IEnMin= 6 EnMin= -76.0506911514857     IErMin= 6 ErrMin= 2.56D-05
 ErrMax= 2.56D-05  0.00D+00 EMaxC= 1.00D-01 BMatC= 2.20D-08 BMatP= 7.25D-07
 IDIUse=1 WtCom= 1.00D+00 WtEn= 0.00D+00
 Coeff-Com: -0.264D-03 0.117D-02 0.474D-02 0.237D-01-0.329D+00 0.130D+01
 Coeff:     -0.264D-03 0.117D-02 0.474D-02 0.237D-01-0.329D+00 0.130D+01
 Gap=     0.542 Goal=   None    Shift=    0.000
 RMSDP=2.29D-06 MaxDP=5.36D-05 DE=-1.76D-06 OVMax= 1.48D-04

 Cycle   7  Pass 1  IDiag  1:
 E= -76.0506912142384     Delta-E=       -0.000000062753 Rises=F Damp=F
 DIIS: error= 3.97D-06 at cycle   7 NSaved=   7.
 NSaved= 7 IEnMin= 7 EnMin= -76.0506912142384     IErMin= 7 ErrMin= 3.97D-06
 ErrMax= 3.97D-06  0.00D+00 EMaxC= 1.00D-01 BMatC= 8.89D-10 BMatP= 2.20D-08
 IDIUse=1 WtCom= 1.00D+00 WtEn= 0.00D+00
 Coeff-Com:  0.243D-04-0.299D-03-0.149D-02 0.154D-01-0.393D-01-0.957D-01
 Coeff-Com:  0.112D+01
 Coeff:      0.243D-04-0.299D-03-0.149D-02 0.154D-01-0.393D-01-0.957D-01
 Coeff:      0.112D+01
 Gap=     0.542 Goal=   None    Shift=    0.000
 RMSDP=3.43D-07 MaxDP=6.29D-06 DE=-6.28D-08 OVMax= 2.37D-05

 Cycle   8  Pass 1  IDiag  1:
 E= -76.0506912159867     Delta-E=       -0.000000001748 Rises=F Damp=F
 DIIS: error= 8.07D-07 at cycle   8 NSaved=   8.
 NSaved= 8 IEnMin= 8 EnMin= -76.0506912159867     IErMin= 8 ErrMin= 8.07D-07
 ErrMax= 8.07D-07  0.00D+00 EMaxC= 1.00D-01 BMatC= 4.06D-11 BMatP= 8.89D-10
 IDIUse=1 WtCom= 1.00D+00 WtEn= 0.00D+00
 Coeff-Com:  0.659D-05 0.106D-04 0.145D-03-0.452D-02 0.228D-01-0.324D-01
 Coeff-Com: -0.288D+00 0.130D+01
 Coeff:      0.659D-05 0.106D-04 0.145D-03-0.452D-02 0.228D-01-0.324D-01
 Coeff:     -0.288D+00 0.130D+01
 Gap=     0.542 Goal=   None    Shift=    0.000
 RMSDP=1.05D-07 MaxDP=2.41D-06 DE=-1.75D-09 OVMax= 6.08D-06

 Cycle   9  Pass 1  IDiag  1:
 E= -76.0506912160887     Delta-E=       -0.000000000102 Rises=F Damp=F
 DIIS: error= 1.54D-07 at cycle   9 NSaved=   9.
 NSaved= 9 IEnMin= 9 EnMin= -76.0506912160887     IErMin= 9 ErrMin= 1.54D-07
 ErrMax= 1.54D-07  0.00D+00 EMaxC= 1.00D-01 BMatC= 8.93D-13 BMatP= 4.06D-11
 IDIUse=1 WtCom= 1.00D+00 WtEn= 0.00D+00
 Coeff-Com: -0.204D-05 0.361D-05-0.104D-04 0.809D-03-0.463D-02 0.930D-02
 Coeff-Com:  0.525D-01-0.344D+00 0.129D+01
 Coeff:     -0.204D-05 0.361D-05-0.104D-04 0.809D-03-0.463D-02 0.930D-02
 Coeff:      0.525D-01-0.344D+00 0.129D+01
 Gap=     0.542 Goal=   None    Shift=    0.000
 RMSDP=1.71D-08 MaxDP=3.52D-07 DE=-1.02D-10 OVMax= 7.95D-07

 Cycle  10  Pass 1  IDiag  1:
 E= -76.0506912160907     Delta-E=       -0.000000000002 Rises=F Damp=F
 DIIS: error= 3.49D-08 at cycle  10 NSaved=  10.
 NSaved=10 IEnMin=10 EnMin= -76.0506912160907     IErMin=10 ErrMin= 3.49D-08
 ErrMax= 3.49D-08  0.00D+00 EMaxC= 1.00D-01 BMatC= 3.96D-14 BMatP= 8.93D-13
 IDIUse=1 WtCom= 1.00D+00 WtEn= 0.00D+00
 Coeff-Com:  0.357D-06-0.138D-05-0.187D-05-0.781D-04 0.543D-03-0.146D-02
 Coeff-Com: -0.514D-02 0.498D-01-0.364D+00 0.132D+01
 Coeff:      0.357D-06-0.138D-05-0.187D-05-0.781D-04 0.543D-03-0.146D-02
 Coeff:     -0.514D-02 0.498D-01-0.364D+00 0.132D+01
 Gap=     0.542 Goal=   None    Shift=    0.000
 RMSDP=3.89D-09 MaxDP=8.13D-08 DE=-2.07D-12 OVMax= 2.07D-07

 SCF Done:  E(RHF) =  -76.0506912161     A.U. after   10 cycles
            NFock= 10  Conv=0.39D-08     -V/T= 2.0008
 KE= 7.599042601764D+01 PE=-1.990599404354D+02 EE= 3.778431631897D+01
 Leave Link  502 at Wed Feb  8 13:50:03 2023, MaxMem=   754974720 cpu:              11.2 elap:               3.8
 (Enter /opt/cluster/programs/g16-c.01/g16/l801.exe)
 Windowed orbitals will be sorted by symmetry type.
 ExpMin= 2.53D-02 ExpMax= 1.53D+04 ExpMxC= 5.22D+02 IAcc=3 IRadAn=         5 AccDes= 0.00D+00
 HarFok:  IExCor=  205 AccDes= 0.00D+00 IRadAn=         5 IDoV=-2 UseB2=F ITyADJ=14
 ICtDFT= 12500011 ScaDFX=  1.000000  1.000000  1.000000  1.000000
 Largest valence mixing into a core orbital is  1.12D-04
 Largest core mixing into a valence orbital is  1.67D-05
 Range of M.O.s used for correlation:     2    92
 NBasis=    92 NAE=     5 NBE=     5 NFC=     1 NFV=     0
 NROrb=     91 NOA=     4 NOB=     4 NVA=    87 NVB=    87

 **** Warning!!: The largest alpha MO coefficient is  0.15649245D+02

 Leave Link  801 at Wed Feb  8 13:50:03 2023, MaxMem=   754974720 cpu:               0.5 elap:               0.3
 (Enter /opt/cluster/programs/g16-c.01/g16/l804.exe)
 Closed-shell transformation, MDV=   754974720 ITran=4 ISComp=2.
 Unit  1 TFree=        277501 TCopy=        343607.
 Semi-Direct transformation.
 ModeAB=           2 MOrb=             4 LenV=     754586778
 LASXX=       736380 LTotXX=      736380 LenRXX=      736380
 LTotAB=      763744 MaxLAS=     2025660 LenRXY=     2025660
 NonZer=     2107560 LenScr=     3929600 LnRSAI=           0
 LnScr1=           0 LExtra=           0 Total=      6691640
 MaxDsk=          -1 SrtSym=           F ITran=            4
 DoSDTr:  NPSUse=  4
 JobTyp=0 Pass  1:  I=   1 to   4.
 (rs|ai) integrals will be sorted in core.
 Complete sort for first half transformation.
 First half transformation complete.
 Complete sort for second half transformation.
 Second half transformation complete.
 Spin components of T(2) and E(2):
     alpha-alpha T2 =       0.8228187851D-02 E2=     -0.3276827659D-01
     alpha-beta  T2 =       0.4775568298D-01 E2=     -0.2041975462D+00
     beta-beta   T2 =       0.8228187851D-02 E2=     -0.3276827659D-01
 ANorm=    0.1031606543D+01
 E2 =    -0.2697340993D+00 EUMP2 =    -0.76320425315433D+02
 Leave Link  804 at Wed Feb  8 13:50:04 2023, MaxMem=   754974720 cpu:               2.9 elap:               0.8
 (Enter /opt/cluster/programs/g16-c.01/g16/l913.exe)
 CIDS:  MDV=   754974720.
 Frozen-core window:  NFC=   1 NFV=   0.
 IFCWin=0 IBDFC=1 NFBD=     0     0 NFCmp=     0     0 NFFFC=     0     0
 Using DD3R+UMP44R for 1st iteration.
 Using DD4RQ for 2nd and later iterations.
 Keep R2 and R3 ints in memory in symmetry-blocked form, NReq=13979827.
 FoFCou: FMM=F IPFlag=           0 FMFlag=           0 FMFlg1=           0
         NFxFlg=           0 DoJE=F BraDBF=F KetDBF=F FulRan=T
         wScrn=  0.000000 ICntrl=       600 IOpCl=  0 I1Cent=           0 NGrid=           0
         NMat0=    1 NMatS0=   4278 NMatT0=    0 NMatD0=    1 NMtDS0=    0 NMtDT0=    0
 Petite list used in FoFCou.
 CIDS: In Core Option IDoMem=           1.
 CCSD(T)
 =======
 Iterations=  50 Convergence= 0.100D-06
 Produce multiple copies of IABC intergrals
 Iteration Nr.   1
 **********************
 DD1Dir will call FoFMem   1 times, MxPair=        20
 NAB=    10 NAA=     0 NBB=     0.
 MP4(R+Q)=  0.41407252D-02
 Maximum subspace dimension=  5
 A-vector RMS=  2.9001525D-03 Max=  1.2207159D-02 conv= 1.00D-05.
 RLE energy=       -0.2679818068
 E3=       -0.24200566D-02        EUMP3=      -0.76322845372D+02
 E4(DQ)=   -0.63413319D-03        UMP4(DQ)=   -0.76323479505D+02
 E4(SDQ)=  -0.25925244D-02        UMP4(SDQ)=  -0.76325437896D+02
 VARIATIONAL ENERGIES WITH THE FIRST-ORDER WAVEFUNCTION:
 DE(Corr)= -0.26797036     E(Corr)=     -76.318661572    
 NORM(A)=   0.10313468D+01
 Iteration Nr.   2
 **********************
 DD1Dir will call FoFMem   1 times, MxPair=        20
 NAB=    10 NAA=     0 NBB=     0.
 A-vector RMS=  3.1148178D-04 Max=  2.1918916D-03 conv= 1.00D-05.
 RLE energy=       -0.2738913315
 DE(Corr)= -0.27350585     E(CORR)=     -76.324197067     Delta=-5.54D-03
 NORM(A)=   0.10335235D+01
 Iteration Nr.   3
 **********************
 DD1Dir will call FoFMem   1 times, MxPair=        20
 NAB=    10 NAA=     0 NBB=     0.
 A-vector RMS=  4.0302093D-04 Max=  2.2288483D-03 conv= 1.00D-05.
 RLE energy=       -0.2742122220
 DE(Corr)= -0.27382368     E(CORR)=     -76.324514900     Delta=-3.18D-04
 NORM(A)=   0.10339607D+01
 Iteration Nr.   4
 **********************
 DD1Dir will call FoFMem   1 times, MxPair=        20
 NAB=    10 NAA=     0 NBB=     0.
 A-vector RMS=  6.3356517D-05 Max=  3.6924252D-04 conv= 1.00D-05.
 RLE energy=       -0.2742474281
 DE(Corr)= -0.27421837     E(CORR)=     -76.324909587     Delta=-3.95D-04
 NORM(A)=   0.10340776D+01
 Iteration Nr.   5
 **********************
 DD1Dir will call FoFMem   1 times, MxPair=        20
 NAB=    10 NAA=     0 NBB=     0.
 A-vector RMS=  2.9882835D-05 Max=  1.9021722D-04 conv= 1.00D-05.
 RLE energy=       -0.2742599558
 DE(Corr)= -0.27425445     E(CORR)=     -76.324945669     Delta=-3.61D-05
 NORM(A)=   0.10341005D+01
 Iteration Nr.   6
 **********************
 DD1Dir will call FoFMem   1 times, MxPair=        20
 NAB=    10 NAA=     0 NBB=     0.
 A-vector RMS=  6.9920028D-06 Max=  4.1934860D-05 conv= 1.00D-05.
 RLE energy=       -0.2742563384
 DE(Corr)= -0.27425723     E(CORR)=     -76.324948441     Delta=-2.77D-06
 NORM(A)=   0.10341023D+01
 Iteration Nr.   7
 **********************
 DD1Dir will call FoFMem   1 times, MxPair=        20
 NAB=    10 NAA=     0 NBB=     0.
 A-vector RMS=  2.2854577D-06 Max=  1.1367908D-05 conv= 1.00D-05.
 RLE energy=       -0.2742563514
 DE(Corr)= -0.27425723     E(CORR)=     -76.324948441     Delta= 1.73D-10
 NORM(A)=   0.10341029D+01
 Iteration Nr.   8
 **********************
 DD1Dir will call FoFMem   1 times, MxPair=        20
 NAB=    10 NAA=     0 NBB=     0.
 A-vector RMS=  9.0775158D-07 Max=  5.6552891D-06 conv= 1.00D-05.
 RLE energy=       -0.2742568747
 DE(Corr)= -0.27425698     E(CORR)=     -76.324948194     Delta= 2.47D-07
 NORM(A)=   0.10341032D+01
 Iteration Nr.   9
 **********************
 DD1Dir will call FoFMem   1 times, MxPair=        20
 NAB=    10 NAA=     0 NBB=     0.
 A-vector RMS=  1.9563730D-07 Max=  1.0309915D-06 conv= 1.00D-05.
 RLE energy=       -0.2742569657
 DE(Corr)= -0.27425698     E(CORR)=     -76.324948198     Delta=-4.04D-09
 NORM(A)=   0.10341034D+01
 CI/CC converged in    9 iterations to DelEn=-4.04D-09 Conv= 1.00D-07 ErrA1= 1.96D-07 Conv= 1.00D-05
 Wavefunction amplitudes converged. E(Corr)=     -76.324948198    
 Largest amplitude= 2.03D-02
 IPart=  1 IA=    6   11.23% done.
 IPart=  1 IA=   11   21.79% done.
 IPart=  4 IA=   16   31.68% done.
 IPart=  4 IA=   21   40.90% done.
 IPart=  4 IA=   27   51.08% done.
 IPart=  4 IA=   33   60.30% done.
 IPart=  3 IA=   41   71.10% done.
 IPart=  4 IA=   49   80.19% done.
 IPart=  1 IA=   61   90.62% done.
 Time for triples=        9.28 seconds.
 T4(CCSD)= -0.90941710D-02
 T5(CCSD)=  0.33147329D-03
 CCSD(T)= -0.76333710896D+02
 Discarding MO integrals.
 Leave Link  913 at Wed Feb  8 13:51:30 2023, MaxMem=   754974720 cpu:             171.4 elap:              85.7
 (Enter /opt/cluster/programs/g16-c.01/g16/l601.exe)
 Copying SCF densities to generalized density rwf, IOpCl= 0 IROHF=0.

 **********************************************************************

            Population analysis using the SCF Density.

 **********************************************************************

 Orbital symmetries:
       Occupied  (A') (A') (A') (A') (A")
       Virtual   (A') (A') (A') (A") (A') (A') (A') (A') (A") (A")
                 (A') (A') (A') (A') (A') (A') (A') (A") (A") (A')
                 (A") (A') (A") (A') (A") (A') (A') (A') (A') (A")
                 (A') (A") (A') (A') (A') (A") (A") (A') (A') (A')
                 (A') (A") (A") (A') (A') (A") (A') (A') (A') (A")
                 (A') (A') (A") (A') (A') (A') (A") (A") (A") (A')
                 (A') (A") (A") (A') (A') (A') (A") (A') (A') (A')
                 (A") (A') (A') (A') (A") (A') (A") (A') (A") (A")
                 (A") (A') (A') (A') (A') (A') (A')
 The electronic state is 1-A'.
 Alpha  occ. eigenvalues --  -20.57182  -1.36444  -0.69321  -0.60715  -0.51383
 Alpha virt. eigenvalues --    0.02841   0.04848   0.13356   0.16030   0.17613
 Alpha virt. eigenvalues --    0.18637   0.22338   0.24668   0.26975   0.28913
 Alpha virt. eigenvalues --    0.30414   0.36865   0.43044   0.46979   0.59241
 Alpha virt. eigenvalues --    0.66941   0.70068   0.72697   0.73343   0.84259
 Alpha virt. eigenvalues --    0.86197   0.89481   0.90319   0.90953   0.92516
 Alpha virt. eigenvalues --    0.94306   0.94741   1.00892   1.05896   1.07696
 Alpha virt. eigenvalues --    1.10758   1.18452   1.19675   1.27000   1.45930
 Alpha virt. eigenvalues --    1.50450   1.56848   1.81416   1.90312   1.93782
 Alpha virt. eigenvalues --    2.17045   2.26719   2.32068   2.33115   2.40465
 Alpha virt. eigenvalues --    2.42001   2.42971   2.53438   2.68522   2.69890
 Alpha virt. eigenvalues --    2.73164   2.84051   2.87194   3.54945   3.70863
 Alpha virt. eigenvalues --    4.03808   4.06166   4.09562   4.14416   4.32189
 Alpha virt. eigenvalues --    4.37000   4.38553   4.41778   4.58253   4.72461
 Alpha virt. eigenvalues --    4.87597   5.09270   5.11374   5.25018   5.45093
 Alpha virt. eigenvalues --    5.60090   5.61835   6.28240   6.47671   6.70240
 Alpha virt. eigenvalues --    7.02047   7.08495   7.16423   7.24359   7.31679
 Alpha virt. eigenvalues --    7.43164   7.43590   7.56165   7.72745   8.06291
 Alpha virt. eigenvalues --    8.84514  16.00144
          Condensed to atoms (all electrons):
               1          2          3
     1  O    7.914643   0.256948   0.263848
     2  H    0.256948   0.537472   0.030644
     3  H    0.263848   0.030644   0.445005
 Mulliken charges:
               1
     1  O   -0.435440
     2  H    0.174936
     3  H    0.260503
 Sum of Mulliken charges =  -0.00000
 Mulliken charges with hydrogens summed into heavy atoms:
               1
     1  O   -0.000000
 Electronic spatial extent (au):  <R**2>=             19.4740
 Charge=             -0.0000 electrons
 Dipole moment (field-independent basis, Debye):
    X=              0.0575    Y=             -2.1721    Z=              0.0000  Tot=              2.1729
 Quadrupole moment (field-independent basis, Debye-Ang):
   XX=             -4.7898   YY=             -5.8492   ZZ=             -7.5436
   XY=              0.1986   XZ=              0.0000   YZ=              0.0000
 Traceless Quadrupole moment (field-independent basis, Debye-Ang):
   XX=              1.2711   YY=              0.2117   ZZ=             -1.4827
   XY=              0.1986   XZ=              0.0000   YZ=              0.0000
 Octapole moment (field-independent basis, Debye-Ang**2):
  XXX=              0.1635  YYY=             -1.4171  ZZZ=              0.0000  XYY=             -0.1705
  XXY=             -1.3178  XXZ=              0.0000  XZZ=              0.0533  YZZ=             -0.2707
  YYZ=              0.0000  XYZ=              0.0000
 Hexadecapole moment (field-independent basis, Debye-Ang**3):
 XXXX=             -6.3072 YYYY=             -7.2712 ZZZZ=             -6.6756 XXXY=             -0.0777
 XXXZ=              0.0000 YYYX=              0.0240 YYYZ=              0.0000 ZZZX=              0.0000
 ZZZY=              0.0000 XXYY=             -1.7890 XXZZ=             -2.3815 YYZZ=             -2.4152
 XXYZ=              0.0000 YYXZ=              0.0000 ZZXY=             -0.0679
 N-N= 9.234506882682D+00 E-N=-1.990599403231D+02  KE= 7.599042601764D+01
 Symmetry A'   KE= 7.151082550842D+01
 Symmetry A"   KE= 4.479600509225D+00
 Leave Link  601 at Wed Feb  8 13:51:30 2023, MaxMem=   754974720 cpu:               1.3 elap:               0.5
 (Enter /opt/cluster/programs/g16-c.01/g16/l9999.exe)
 Unable to Open any file for archive entry.
 1\1\GINC-NODE64\SP\RCCSD(T)-FC\Aug-CC-pVTZ\H2O1\BOITTIER\08-Feb-2023\0
 \\#P CCSD(T)/aug-cc-pVTZ scf(maxcycle=200)\\Gaussian input\\0,1\O,0,0.
 ,0.11751,0.\H,0,0.7183372325,-0.4395112028,0.\H,0,-0.6518197504,-0.652
 6925792,0.\\Version=ES64L-G16RevC.01\State=1-A'\HF=-76.0506912\MP2=-76
 .3204253\MP3=-76.3228454\MP4D=-76.3276202\MP4DQ=-76.3234795\MP4SDQ=-76
 .3254379\CCSD=-76.3249482\CCSD(T)=-76.3337109\RMSD=3.895e-09\PG=CS [SG
 (H2O1)]\\@
 The archive entry for this job was punched.


 THOUGH I SPEAK WITH THE TONGUES OF MEN AND OF ANGELS, 
 AND HAVE NOT LOVE,
 I AM BECOME AS SOUNDING BRASS, A TINKLING CYMBAL.
 AND THOUGH I HAVE THE GIFT OF PROPHECY,
 AND UNDERSTAND ALL MYSTERIES, AND ALL KNOWLEDGE.
 AND THOUGH I HAVE ALL FAITH, SO THAT I COULD REMOVE MOUNTAINS,
 AND HAVE NOT LOVE, I AM NOTHING.
 AND THOUGH I BESTOW ALL MY GOODS TO FEED THE POOR,
 AND THOUGH I GIVE MY BODY TO BE BURNED,
 AND HAVE NOT LOVE IT PROFITETH ME NOTHING.
 LOVE SUFFERETH LONG, AND IS KIND,
 LOVE ENVIETH NOT,
 LOVE VAUNTETH NOT ITSELF, IS NOT PUFFED UP,
 DOTH NOT BEHAVE ITSELF UNSEEMLY, SEEKETH NOT HER OWN,
 IS NOT EASILY PROVOKED, THINKETH NO EVIL,
 REJOICETH NOT IN INIQUITY, BUT REJOICETH IN THE TRUTH,
 BEARETH ALL THINGS, BELIEVETH ALL THINGS,
 HOPETH ALL THINGS, ENDURETH ALL THINGS.
 LOVE NEVER FAILETH, BUT WHETHER THERE BE PROPHECIES, THEY SHALL FAIL, 
 WHETHER THERE BE TONGUES, THEY SHALL CEASE,
 WHETHER THERE BE KNOWLEDGE, IT SHALL VANISH AWAY.
 FOR WE KNOW IN PART, AND WE PROPHESY IN PART.
 BUT WHEN THAT WHICH IS PERFECT IS COME, THEN THAT WHICH IS IN PART 
 SHALL BE DONE AWAY. 
 WHEN I WAS A CHILD, I SPAKE AS A CHILD, I UNDERSTOOD AS A CHILD, 
 I THOUGHT AS A CHILD.
 BUT WHEN I BECAME A MAN, I PUT AWAY CHILDISH THINGS.
 FOR NOW WE SEE THROUGH A GLASS, DARKLY, BUT THEN FACE TO FACE.
 NOW I KNOW IN PART. BUT THEN SHALL I KNOW EVEN AS ALSO I AM KNOWN.
 AND NOW ABIDETH FAITH, HOPE AND LOVE, THESE THREE.
 BUT THE GREATEST OF THESE IS LOVE.

                     I CORINTHIANS 13
 Job cpu time:       0 days  0 hours  3 minutes 15.7 seconds.
 Elapsed time:       0 days  0 hours  1 minutes 34.4 seconds.
 File lengths (MBytes):  RWF=     75 Int=      0 D2E=      0 Chk=      2 Scr=      1
 Normal termination of Gaussian 16 at Wed Feb  8 13:51:30 2023.
