 Entering Gaussian System, Link 0=/opt/cluster/programs/g16-c.01/g16/g16
 Input=/scratch/boittier/jobs/tmp.7425320/gaussian_54_water_pbe0_dz.com
 Output=/scratch/boittier/jobs/tmp.7425320/gaussian_54_water_pbe0_dz.out
 Initial command:
 /opt/cluster/programs/g16-c.01/g16/l1.exe "/scratch/boittier/jobs/tmp.7425320/Gau-1500.inp" -scrdir="/scratch/boittier/jobs/tmp.7425320/"
 Entering Link 1 = /opt/cluster/programs/g16-c.01/g16/l1.exe PID=      1504.
  
 Copyright (c) 1988-2019, Gaussian, Inc.  All Rights Reserved.
  
 This is part of the Gaussian(R) 16 program.  It is based on
 the Gaussian(R) 09 system (copyright 2009, Gaussian, Inc.),
 the Gaussian(R) 03 system (copyright 2003, Gaussian, Inc.),
 the Gaussian(R) 98 system (copyright 1998, Gaussian, Inc.),
 the Gaussian(R) 94 system (copyright 1995, Gaussian, Inc.),
 the Gaussian 92(TM) system (copyright 1992, Gaussian, Inc.),
 the Gaussian 90(TM) system (copyright 1990, Gaussian, Inc.),
 the Gaussian 88(TM) system (copyright 1988, Gaussian, Inc.),
 the Gaussian 86(TM) system (copyright 1986, Carnegie Mellon
 University), and the Gaussian 82(TM) system (copyright 1983,
 Carnegie Mellon University). Gaussian is a federally registered
 trademark of Gaussian, Inc.
  
 This software contains proprietary and confidential information,
 including trade secrets, belonging to Gaussian, Inc.
  
 This software is provided under written license and may be
 used, copied, transmitted, or stored only in accord with that
 written license.
  
 The following legend is applicable only to US Government
 contracts under FAR:
  
                    RESTRICTED RIGHTS LEGEND
  
 Use, reproduction and disclosure by the US Government is
 subject to restrictions as set forth in subparagraphs (a)
 and (c) of the Commercial Computer Software - Restricted
 Rights clause in FAR 52.227-19.
  
 Gaussian, Inc.
 340 Quinnipiac St., Bldg. 40, Wallingford CT 06492
  
  
 ---------------------------------------------------------------
 Warning -- This program may not be used in any manner that
 competes with the business of Gaussian, Inc. or will provide
 assistance to any competitor of Gaussian, Inc.  The licensee
 of this program is prohibited from giving any competitor of
 Gaussian, Inc. access to this program.  By using this program,
 the user acknowledges that Gaussian, Inc. is engaged in the
 business of creating and licensing software in the field of
 computational chemistry and represents and warrants to the
 licensee that it is not a competitor of Gaussian, Inc. and that
 it will not use this program in any manner prohibited above.
 ---------------------------------------------------------------
  

 Cite this work as:
 Gaussian 16, Revision C.01,
 M. J. Frisch, G. W. Trucks, H. B. Schlegel, G. E. Scuseria, 
 M. A. Robb, J. R. Cheeseman, G. Scalmani, V. Barone, 
 G. A. Petersson, H. Nakatsuji, X. Li, M. Caricato, A. V. Marenich, 
 J. Bloino, B. G. Janesko, R. Gomperts, B. Mennucci, H. P. Hratchian, 
 J. V. Ortiz, A. F. Izmaylov, J. L. Sonnenberg, D. Williams-Young, 
 F. Ding, F. Lipparini, F. Egidi, J. Goings, B. Peng, A. Petrone, 
 T. Henderson, D. Ranasinghe, V. G. Zakrzewski, J. Gao, N. Rega, 
 G. Zheng, W. Liang, M. Hada, M. Ehara, K. Toyota, R. Fukuda, 
 J. Hasegawa, M. Ishida, T. Nakajima, Y. Honda, O. Kitao, H. Nakai, 
 T. Vreven, K. Throssell, J. A. Montgomery, Jr., J. E. Peralta, 
 F. Ogliaro, M. J. Bearpark, J. J. Heyd, E. N. Brothers, K. N. Kudin, 
 V. N. Staroverov, T. A. Keith, R. Kobayashi, J. Normand, 
 K. Raghavachari, A. P. Rendell, J. C. Burant, S. S. Iyengar, 
 J. Tomasi, M. Cossi, J. M. Millam, M. Klene, C. Adamo, R. Cammi, 
 J. W. Ochterski, R. L. Martin, K. Morokuma, O. Farkas, 
 J. B. Foresman, and D. J. Fox, Gaussian, Inc., Wallingford CT, 2019.
 
 ******************************************
 Gaussian 16:  ES64L-G16RevC.01  3-Jul-2019
                20-Mar-2023 
 ******************************************
 %nproc=4
 Will use up to    4 processors via shared memory.
 %mem=5760MB
 %chk=gaussian_54_water_pbe0_dz.chk
 ----------------------------------------
 #P PBE1PBE/aug-cc-pVDZ scf(maxcycle=200)
 ----------------------------------------
 1/38=1,172=1/1;
 2/12=2,17=6,18=5,40=1/2;
 3/5=16,7=10,11=2,25=1,30=1,74=-13/1,2,3;
 4//1;
 5/5=2,7=200,38=5/2;
 6/7=2,8=2,9=2,10=2,28=1/1;
 99/5=1,9=1/99;
 Leave Link    1 at Mon Mar 20 17:33:46 2023, MaxMem=   754974720 cpu:               0.1 elap:               0.1
 (Enter /opt/cluster/programs/g16-c.01/g16/l101.exe)
 --------------
 Gaussian input
 --------------
 Symbolic Z-matrix:
 Charge =  0 Multiplicity = 1
 O                     0.        0.11751   0. 
 H                     0.71834  -0.43951   0. 
 H                    -0.87594  -0.38331   0. 
 
 ITRead=  0  0  0
 MicOpt= -1 -1 -1
 NAtoms=      3 NQM=        3 NQMF=       0 NMMI=      0 NMMIF=      0
                NMic=       0 NMicF=      0.
                    Isotopes and Nuclear Properties:
 (Nuclear quadrupole moments (NQMom) in fm**2, nuclear magnetic moments (NMagM)
  in nuclear magnetons)

  Atom         1           2           3
 IAtWgt=          16           1           1
 AtmWgt=  15.9949146   1.0078250   1.0078250
 NucSpn=           0           1           1
 AtZEff=  -0.0000000  -0.0000000  -0.0000000
 NQMom=    0.0000000   0.0000000   0.0000000
 NMagM=    0.0000000   2.7928460   2.7928460
 AtZNuc=   8.0000000   1.0000000   1.0000000
 Leave Link  101 at Mon Mar 20 17:33:46 2023, MaxMem=   754974720 cpu:               0.7 elap:               0.2
 (Enter /opt/cluster/programs/g16-c.01/g16/l202.exe)
                          Input orientation:                          
 ---------------------------------------------------------------------
 Center     Atomic      Atomic             Coordinates (Angstroms)
 Number     Number       Type             X           Y           Z
 ---------------------------------------------------------------------
      1          8           0        0.000000    0.117510    0.000000
      2          1           0        0.718337   -0.439511    0.000000
      3          1           0       -0.875935   -0.383308    0.000000
 ---------------------------------------------------------------------
                    Distance matrix (angstroms):
                    1          2          3
     1  O    0.000000
     2  H    0.909000   0.000000
     3  H    1.009000   1.595263   0.000000
 Stoichiometry    H2O
 Framework group  CS[SG(H2O)]
 Deg. of freedom     3
 Full point group                 CS      NOp   2
 Largest Abelian subgroup         CS      NOp   2
 Largest concise Abelian subgroup C1      NOp   1
                         Standard orientation:                         
 ---------------------------------------------------------------------
 Center     Atomic      Atomic             Coordinates (Angstroms)
 Number     Number       Type             X           Y           Z
 ---------------------------------------------------------------------
      1          8           0        0.000000    0.106951    0.000000
      2          1           0        0.792575   -0.338139    0.000000
      3          1           0       -0.792575   -0.517473    0.000000
 ---------------------------------------------------------------------
 Rotational constants (GHZ):        1008.1831299         390.8550419         281.6602630
 Leave Link  202 at Mon Mar 20 17:33:46 2023, MaxMem=   754974720 cpu:               0.1 elap:               0.1
 (Enter /opt/cluster/programs/g16-c.01/g16/l301.exe)
 Standard basis: Aug-CC-pVDZ (5D, 7F)
 Ernie: Thresh=  0.10000D-02 Tol=  0.10000D-05 Strict=F.
 Ernie:  2 primitive shells out of 39 were deleted.
 There are    32 symmetry adapted cartesian basis functions of A'  symmetry.
 There are    11 symmetry adapted cartesian basis functions of A"  symmetry.
 There are    30 symmetry adapted basis functions of A'  symmetry.
 There are    11 symmetry adapted basis functions of A"  symmetry.
    41 basis functions,    65 primitive gaussians,    43 cartesian basis functions
     5 alpha electrons        5 beta electrons
       nuclear repulsion energy         9.1845998881 Hartrees.
 IExCor= 1009 DFT=T Ex+Corr=PBE1PBE ExCW=0 ScaHFX=  0.250000
 ScaDFX=  0.750000  0.750000  1.000000  1.000000 ScalE2=  1.000000  1.000000
 IRadAn=      5 IRanWt=     -1 IRanGd=            0 ICorTp=0 IEmpDi=  4
 NAtoms=    3 NActive=    3 NUniq=    3 SFac= 1.00D+00 NAtFMM=   60 NAOKFM=F Big=F
 Integral buffers will be    131072 words long.
 Raffenetti 2 integral format.
 Two-electron integral symmetry is turned on.
 Leave Link  301 at Mon Mar 20 17:33:46 2023, MaxMem=   754974720 cpu:               0.1 elap:               0.1
 (Enter /opt/cluster/programs/g16-c.01/g16/l302.exe)
 NPDir=0 NMtPBC=     1 NCelOv=     1 NCel=       1 NClECP=     1 NCelD=      1
         NCelK=      1 NCelE2=     1 NClLst=     1 CellRange=     0.0.
 One-electron integrals computed using PRISM.
 One-electron integral symmetry used in STVInt
 NBasis=    41 RedAO= T EigKep=  2.71D-03  NBF=    30    11
 NBsUse=    41 1.00D-06 EigRej= -1.00D+00 NBFU=    30    11
 Precomputing XC quadrature grid using
 IXCGrd= 4 IRadAn=           5 IRanWt=          -1 IRanGd=           0 AccXCQ= 0.00D+00.
 Generated NRdTot=       0 NPtTot=           0 NUsed=           0 NTot=          32
 NSgBfM=    43    43    43    43    43 MxSgAt=     3 MxSgA2=     3.
 Leave Link  302 at Mon Mar 20 17:33:47 2023, MaxMem=   754974720 cpu:               1.6 elap:               0.5
 (Enter /opt/cluster/programs/g16-c.01/g16/l303.exe)
 DipDrv:  MaxL=1.
 Leave Link  303 at Mon Mar 20 17:33:47 2023, MaxMem=   754974720 cpu:               0.2 elap:               0.1
 (Enter /opt/cluster/programs/g16-c.01/g16/l401.exe)
 ExpMin= 2.97D-02 ExpMax= 1.17D+04 ExpMxC= 4.01D+02 IAcc=3 IRadAn=         5 AccDes= 0.00D+00
 Harris functional with IExCor= 1009 and IRadAn=       5 diagonalized for initial guess.
 HarFok:  IExCor= 1009 AccDes= 0.00D+00 IRadAn=         5 IDoV= 1 UseB2=F ITyADJ=14
 ICtDFT=  3500011 ScaDFX=  1.000000  1.000000  1.000000  1.000000
 FoFCou: FMM=F IPFlag=           0 FMFlag=      100000 FMFlg1=           0
         NFxFlg=           0 DoJE=T BraDBF=F KetDBF=T FulRan=T
         wScrn=  0.000000 ICntrl=       500 IOpCl=  0 I1Cent=   200000004 NGrid=           0
         NMat0=    1 NMatS0=      1 NMatT0=    0 NMatD0=    1 NMtDS0=    0 NMtDT0=    0
 Petite list used in FoFCou.
 Harris En= -76.3942927333307    
 JPrj=0 DoOrth=F DoCkMO=F.
 Initial guess orbital symmetries:
       Occupied  (A') (A') (A') (A') (A")
       Virtual   (A') (A') (A') (A") (A') (A') (A') (A') (A") (A')
                 (A") (A') (A') (A') (A') (A') (A") (A') (A") (A')
                 (A") (A') (A') (A') (A") (A") (A') (A') (A') (A')
                 (A') (A") (A') (A") (A') (A')
 The electronic state of the initial guess is 1-A'.
 Leave Link  401 at Mon Mar 20 17:33:47 2023, MaxMem=   754974720 cpu:               0.8 elap:               0.2
 (Enter /opt/cluster/programs/g16-c.01/g16/l502.exe)
 Keep R1 ints in memory in symmetry-blocked form, NReq=3831793.
 FoFCou: FMM=F IPFlag=           0 FMFlag=           0 FMFlg1=           0
         NFxFlg=           0 DoJE=F BraDBF=F KetDBF=F FulRan=T
         wScrn=  0.000000 ICntrl=       600 IOpCl=  0 I1Cent=           0 NGrid=           0
         NMat0=    1 NMatS0=    861 NMatT0=    0 NMatD0=    1 NMtDS0=    0 NMtDT0=    0
 Petite list used in FoFCou.
 Closed shell SCF:
 Using DIIS extrapolation, IDIIS=  1040.
 NGot=   754974720 LenX=   754771907 LenY=   754769617
 Requested convergence on RMS density matrix=1.00D-08 within 200 cycles.
 Requested convergence on MAX density matrix=1.00D-06.
 Requested convergence on             energy=1.00D-06.
 No special actions if energy rises.

 Cycle   1  Pass 1  IDiag  1:
 E= -76.2829533545810    
 DIIS: error= 5.38D-02 at cycle   1 NSaved=   1.
 NSaved= 1 IEnMin= 1 EnMin= -76.2829533545810     IErMin= 1 ErrMin= 5.38D-02
 ErrMax= 5.38D-02  0.00D+00 EMaxC= 1.00D-01 BMatC= 9.21D-02 BMatP= 9.21D-02
 IDIUse=3 WtCom= 4.62D-01 WtEn= 5.38D-01
 Coeff-Com:  0.100D+01
 Coeff-En:   0.100D+01
 Coeff:      0.100D+01
 Gap=     0.172 Goal=   None    Shift=    0.000
 GapD=    0.172 DampG=1.000 DampE=0.500 DampFc=0.5000 IDamp=-1.
 Damping current iteration by 5.00D-01
 RMSDP=1.01D-02 MaxDP=1.66D-01              OVMax= 2.07D-01

 Cycle   2  Pass 1  IDiag  1:
 E= -76.3004419599140     Delta-E=       -0.017488605333 Rises=F Damp=T
 DIIS: error= 1.80D-02 at cycle   2 NSaved=   2.
 NSaved= 2 IEnMin= 2 EnMin= -76.3004419599140     IErMin= 2 ErrMin= 1.80D-02
 ErrMax= 1.80D-02  0.00D+00 EMaxC= 1.00D-01 BMatC= 8.55D-03 BMatP= 9.21D-02
 IDIUse=3 WtCom= 8.20D-01 WtEn= 1.80D-01
 Coeff-Com:  0.222D+00 0.778D+00
 Coeff-En:   0.375D+00 0.625D+00
 Coeff:      0.249D+00 0.751D+00
 Gap=     0.309 Goal=   None    Shift=    0.000
 RMSDP=1.26D-03 MaxDP=1.64D-02 DE=-1.75D-02 OVMax= 1.31D-01

 Cycle   3  Pass 1  IDiag  1:
 E= -76.3533184035026     Delta-E=       -0.052876443589 Rises=F Damp=F
 DIIS: error= 1.31D-03 at cycle   3 NSaved=   3.
 NSaved= 3 IEnMin= 3 EnMin= -76.3533184035026     IErMin= 3 ErrMin= 1.31D-03
 ErrMax= 1.31D-03  0.00D+00 EMaxC= 1.00D-01 BMatC= 6.97D-05 BMatP= 8.55D-03
 IDIUse=3 WtCom= 9.87D-01 WtEn= 1.31D-02
 Coeff-Com:  0.200D-01-0.138D-01 0.994D+00
 Coeff-En:   0.000D+00 0.000D+00 0.100D+01
 Coeff:      0.198D-01-0.137D-01 0.994D+00
 Gap=     0.319 Goal=   None    Shift=    0.000
 RMSDP=1.48D-04 MaxDP=1.73D-03 DE=-5.29D-02 OVMax= 1.84D-03

 Cycle   4  Pass 1  IDiag  1:
 E= -76.3533628837617     Delta-E=       -0.000044480259 Rises=F Damp=F
 DIIS: error= 2.57D-04 at cycle   4 NSaved=   4.
 NSaved= 4 IEnMin= 4 EnMin= -76.3533628837617     IErMin= 4 ErrMin= 2.57D-04
 ErrMax= 2.57D-04  0.00D+00 EMaxC= 1.00D-01 BMatC= 3.74D-06 BMatP= 6.97D-05
 IDIUse=3 WtCom= 9.97D-01 WtEn= 2.57D-03
 Coeff-Com:  0.404D-02-0.172D-01 0.238D+00 0.775D+00
 Coeff-En:   0.000D+00 0.000D+00 0.000D+00 0.100D+01
 Coeff:      0.403D-02-0.172D-01 0.237D+00 0.776D+00
 Gap=     0.319 Goal=   None    Shift=    0.000
 RMSDP=2.09D-05 MaxDP=2.81D-04 DE=-4.45D-05 OVMax= 4.51D-04

 Cycle   5  Pass 1  IDiag  1:
 E= -76.3533653134010     Delta-E=       -0.000002429639 Rises=F Damp=F
 DIIS: error= 9.95D-05 at cycle   5 NSaved=   5.
 NSaved= 5 IEnMin= 5 EnMin= -76.3533653134010     IErMin= 5 ErrMin= 9.95D-05
 ErrMax= 9.95D-05  0.00D+00 EMaxC= 1.00D-01 BMatC= 2.50D-07 BMatP= 3.74D-06
 IDIUse=1 WtCom= 1.00D+00 WtEn= 0.00D+00
 Coeff-Com:  0.127D-02-0.223D-02 0.648D-02 0.515D-01 0.943D+00
 Coeff:      0.127D-02-0.223D-02 0.648D-02 0.515D-01 0.943D+00
 Gap=     0.320 Goal=   None    Shift=    0.000
 RMSDP=6.78D-06 MaxDP=1.09D-04 DE=-2.43D-06 OVMax= 1.44D-04

 Cycle   6  Pass 1  IDiag  1:
 E= -76.3533655071340     Delta-E=       -0.000000193733 Rises=F Damp=F
 DIIS: error= 7.01D-06 at cycle   6 NSaved=   6.
 NSaved= 6 IEnMin= 6 EnMin= -76.3533655071340     IErMin= 6 ErrMin= 7.01D-06
 ErrMax= 7.01D-06  0.00D+00 EMaxC= 1.00D-01 BMatC= 1.44D-09 BMatP= 2.50D-07
 IDIUse=1 WtCom= 1.00D+00 WtEn= 0.00D+00
 Coeff-Com:  0.273D-03-0.419D-03 0.357D-05 0.274D-02 0.185D+00 0.812D+00
 Coeff:      0.273D-03-0.419D-03 0.357D-05 0.274D-02 0.185D+00 0.812D+00
 Gap=     0.320 Goal=   None    Shift=    0.000
 RMSDP=6.57D-07 MaxDP=8.44D-06 DE=-1.94D-07 OVMax= 1.22D-05

 Cycle   7  Pass 1  IDiag  1:
 E= -76.3533655083013     Delta-E=       -0.000000001167 Rises=F Damp=F
 DIIS: error= 1.03D-06 at cycle   7 NSaved=   7.
 NSaved= 7 IEnMin= 7 EnMin= -76.3533655083013     IErMin= 7 ErrMin= 1.03D-06
 ErrMax= 1.03D-06  0.00D+00 EMaxC= 1.00D-01 BMatC= 4.32D-11 BMatP= 1.44D-09
 IDIUse=1 WtCom= 1.00D+00 WtEn= 0.00D+00
 Coeff-Com: -0.295D-04 0.449D-04-0.190D-03-0.258D-02-0.313D-01 0.114D+00
 Coeff-Com:  0.920D+00
 Coeff:     -0.295D-04 0.449D-04-0.190D-03-0.258D-02-0.313D-01 0.114D+00
 Coeff:      0.920D+00
 Gap=     0.320 Goal=   None    Shift=    0.000
 RMSDP=1.27D-07 MaxDP=1.82D-06 DE=-1.17D-09 OVMax= 2.75D-06

 Cycle   8  Pass 1  IDiag  1:
 E= -76.3533655083397     Delta-E=       -0.000000000038 Rises=F Damp=F
 DIIS: error= 9.81D-08 at cycle   8 NSaved=   8.
 NSaved= 8 IEnMin= 8 EnMin= -76.3533655083397     IErMin= 8 ErrMin= 9.81D-08
 ErrMax= 9.81D-08  0.00D+00 EMaxC= 1.00D-01 BMatC= 3.06D-13 BMatP= 4.32D-11
 IDIUse=1 WtCom= 1.00D+00 WtEn= 0.00D+00
 Coeff-Com: -0.170D-05 0.280D-05-0.124D-04 0.945D-04 0.525D-03-0.797D-02
 Coeff-Com: -0.594D-01 0.107D+01
 Coeff:     -0.170D-05 0.280D-05-0.124D-04 0.945D-04 0.525D-03-0.797D-02
 Coeff:     -0.594D-01 0.107D+01
 Gap=     0.320 Goal=   None    Shift=    0.000
 RMSDP=1.11D-08 MaxDP=2.17D-07 DE=-3.85D-11 OVMax= 3.85D-07

 Cycle   9  Pass 1  IDiag  1:
 E= -76.3533655083400     Delta-E=       -0.000000000000 Rises=F Damp=F
 DIIS: error= 7.46D-09 at cycle   9 NSaved=   9.
 NSaved= 9 IEnMin= 9 EnMin= -76.3533655083400     IErMin= 9 ErrMin= 7.46D-09
 ErrMax= 7.46D-09  0.00D+00 EMaxC= 1.00D-01 BMatC= 1.32D-15 BMatP= 3.06D-13
 IDIUse=1 WtCom= 1.00D+00 WtEn= 0.00D+00
 Coeff-Com:  0.245D-06-0.324D-06 0.770D-06 0.215D-04 0.346D-03-0.114D-02
 Coeff-Com: -0.862D-02-0.983D-04 0.101D+01
 Coeff:      0.245D-06-0.324D-06 0.770D-06 0.215D-04 0.346D-03-0.114D-02
 Coeff:     -0.862D-02-0.983D-04 0.101D+01
 Gap=     0.320 Goal=   None    Shift=    0.000
 RMSDP=1.02D-09 MaxDP=1.83D-08 DE=-2.56D-13 OVMax= 3.12D-08

 SCF Done:  E(RPBE1PBE) =  -76.3533655083     A.U. after    9 cycles
            NFock=  9  Conv=0.10D-08     -V/T= 2.0053
 KE= 7.594842905694D+01 PE=-1.988950170447D+02 EE= 3.740862259139D+01
 Leave Link  502 at Mon Mar 20 17:33:48 2023, MaxMem=   754974720 cpu:               2.3 elap:               0.6
 (Enter /opt/cluster/programs/g16-c.01/g16/l601.exe)
 Copying SCF densities to generalized density rwf, IOpCl= 0 IROHF=0.

 **********************************************************************

            Population analysis using the SCF Density.

 **********************************************************************

 Orbital symmetries:
       Occupied  (A') (A') (A') (A') (A")
       Virtual   (A') (A') (A') (A") (A') (A') (A') (A') (A") (A')
                 (A") (A') (A') (A') (A') (A') (A") (A') (A") (A')
                 (A") (A') (A') (A') (A") (A") (A') (A') (A') (A')
                 (A') (A") (A') (A") (A') (A')
 The electronic state is 1-A'.
 Alpha  occ. eigenvalues --  -19.22678  -1.04489  -0.56559  -0.39638  -0.33162
 Alpha virt. eigenvalues --   -0.01200   0.03182   0.11231   0.13098   0.13751
 Alpha virt. eigenvalues --    0.16553   0.19695   0.22965   0.28632   0.32089
 Alpha virt. eigenvalues --    0.34703   0.44494   0.50770   0.54655   0.65938
 Alpha virt. eigenvalues --    0.73319   0.90852   0.91649   0.96396   1.13199
 Alpha virt. eigenvalues --    1.22647   1.23820   1.34266   1.73990   1.78124
 Alpha virt. eigenvalues --    1.85200   2.10249   2.19686   2.34137   2.46237
 Alpha virt. eigenvalues --    2.60538   3.29546   3.30877   3.33808   3.67776
 Alpha virt. eigenvalues --    3.92240
          Condensed to atoms (all electrons):
               1          2          3
     1  O    7.579602   0.343351   0.316648
     2  H    0.343351   0.662427  -0.070372
     3  H    0.316648  -0.070372   0.578719
 Mulliken charges:
               1
     1  O   -0.239600
     2  H    0.064594
     3  H    0.175006
 Sum of Mulliken charges =   0.00000
 Mulliken charges with hydrogens summed into heavy atoms:
               1
     1  O    0.000000
 Electronic spatial extent (au):  <R**2>=             19.9758
 Charge=              0.0000 electrons
 Dipole moment (field-independent basis, Debye):
    X=              0.0383    Y=             -1.7478    Z=              0.0000  Tot=              1.7482
 Quadrupole moment (field-independent basis, Debye-Ang):
   XX=             -4.1688   YY=             -6.6270   ZZ=             -7.7630
   XY=              0.3295   XZ=              0.0000   YZ=              0.0000
 Traceless Quadrupole moment (field-independent basis, Debye-Ang):
   XX=              2.0175   YY=             -0.4407   ZZ=             -1.5768
   XY=              0.3295   XZ=              0.0000   YZ=              0.0000
 Octapole moment (field-independent basis, Debye-Ang**2):
  XXX=              0.1197  YYY=             -0.9206  ZZZ=              0.0000  XYY=             -0.1899
  XXY=             -1.2821  XXZ=              0.0000  XZZ=              0.0582  YZZ=             -0.2214
  YYZ=              0.0000  XYZ=              0.0000
 Hexadecapole moment (field-independent basis, Debye-Ang**3):
 XXXX=             -6.3884 YYYY=             -8.0449 ZZZZ=             -7.6998 XXXY=              0.0588
 XXXZ=              0.0000 YYYX=             -0.0207 YYYZ=              0.0000 ZZZX=              0.0000
 ZZZY=              0.0000 XXYY=             -2.2200 XXZZ=             -2.7372 YYZZ=             -2.6651
 XXYZ=              0.0000 YYXZ=              0.0000 ZZXY=             -0.0715
 N-N= 9.184599888069D+00 E-N=-1.988950168025D+02  KE= 7.594842905694D+01
 Symmetry A'   KE= 7.151354810203D+01
 Symmetry A"   KE= 4.434880954911D+00
 No NMR shielding tensors so no spin-rotation constants.
 Leave Link  601 at Mon Mar 20 17:33:48 2023, MaxMem=   754974720 cpu:               1.1 elap:               0.4
 (Enter /opt/cluster/programs/g16-c.01/g16/l9999.exe)
 Unable to Open any file for archive entry.
 1\1\GINC-NODE59\SP\RPBE1PBE\Aug-CC-pVDZ\H2O1\BOITTIER\20-Mar-2023\0\\#
 P PBE1PBE/aug-cc-pVDZ scf(maxcycle=200)\\Gaussian input\\0,1\O,0,0.,0.
 11751,0.\H,0,0.7183372325,-0.4395112028,0.\H,0,-0.8759350061,-0.383308
 1957,0.\\Version=ES64L-G16RevC.01\State=1-A'\HF=-76.3533655\RMSD=1.017
 e-09\Dipole=-0.0864186,-0.6823464,0.\Quadrupole=1.531661,-0.3593715,-1
 .1722895,-0.0320534,0.,0.\PG=CS [SG(H2O1)]\\@
 The archive entry for this job was punched.


 GETTING A SIMPLE ANSWER FROM A PROFESSOR IS LIKE
 GETTING A THIMBLE OF WATER FROM A FIRE HYDRANT.
     -- PROF. LEN SHAPIRO, NDSU
 Job cpu time:       0 days  0 hours  0 minutes  7.5 seconds.
 Elapsed time:       0 days  0 hours  0 minutes  2.3 seconds.
 File lengths (MBytes):  RWF=      6 Int=      0 D2E=      0 Chk=      1 Scr=      1
 Normal termination of Gaussian 16 at Mon Mar 20 17:33:48 2023.
