 Entering Gaussian System, Link 0=/opt/cluster/programs/g16-c.01/g16/g16
 Input=/scratch/boittier/jobs/tmp.7425293/gaussian_28_water_pbe0_dz.com
 Output=/scratch/boittier/jobs/tmp.7425293/gaussian_28_water_pbe0_dz.out
 Initial command:
 /opt/cluster/programs/g16-c.01/g16/l1.exe "/scratch/boittier/jobs/tmp.7425293/Gau-153132.inp" -scrdir="/scratch/boittier/jobs/tmp.7425293/"
 Entering Link 1 = /opt/cluster/programs/g16-c.01/g16/l1.exe PID=    153133.
  
 Copyright (c) 1988-2019, Gaussian, Inc.  All Rights Reserved.
  
 This is part of the Gaussian(R) 16 program.  It is based on
 the Gaussian(R) 09 system (copyright 2009, Gaussian, Inc.),
 the Gaussian(R) 03 system (copyright 2003, Gaussian, Inc.),
 the Gaussian(R) 98 system (copyright 1998, Gaussian, Inc.),
 the Gaussian(R) 94 system (copyright 1995, Gaussian, Inc.),
 the Gaussian 92(TM) system (copyright 1992, Gaussian, Inc.),
 the Gaussian 90(TM) system (copyright 1990, Gaussian, Inc.),
 the Gaussian 88(TM) system (copyright 1988, Gaussian, Inc.),
 the Gaussian 86(TM) system (copyright 1986, Carnegie Mellon
 University), and the Gaussian 82(TM) system (copyright 1983,
 Carnegie Mellon University). Gaussian is a federally registered
 trademark of Gaussian, Inc.
  
 This software contains proprietary and confidential information,
 including trade secrets, belonging to Gaussian, Inc.
  
 This software is provided under written license and may be
 used, copied, transmitted, or stored only in accord with that
 written license.
  
 The following legend is applicable only to US Government
 contracts under FAR:
  
                    RESTRICTED RIGHTS LEGEND
  
 Use, reproduction and disclosure by the US Government is
 subject to restrictions as set forth in subparagraphs (a)
 and (c) of the Commercial Computer Software - Restricted
 Rights clause in FAR 52.227-19.
  
 Gaussian, Inc.
 340 Quinnipiac St., Bldg. 40, Wallingford CT 06492
  
  
 ---------------------------------------------------------------
 Warning -- This program may not be used in any manner that
 competes with the business of Gaussian, Inc. or will provide
 assistance to any competitor of Gaussian, Inc.  The licensee
 of this program is prohibited from giving any competitor of
 Gaussian, Inc. access to this program.  By using this program,
 the user acknowledges that Gaussian, Inc. is engaged in the
 business of creating and licensing software in the field of
 computational chemistry and represents and warrants to the
 licensee that it is not a competitor of Gaussian, Inc. and that
 it will not use this program in any manner prohibited above.
 ---------------------------------------------------------------
  

 Cite this work as:
 Gaussian 16, Revision C.01,
 M. J. Frisch, G. W. Trucks, H. B. Schlegel, G. E. Scuseria, 
 M. A. Robb, J. R. Cheeseman, G. Scalmani, V. Barone, 
 G. A. Petersson, H. Nakatsuji, X. Li, M. Caricato, A. V. Marenich, 
 J. Bloino, B. G. Janesko, R. Gomperts, B. Mennucci, H. P. Hratchian, 
 J. V. Ortiz, A. F. Izmaylov, J. L. Sonnenberg, D. Williams-Young, 
 F. Ding, F. Lipparini, F. Egidi, J. Goings, B. Peng, A. Petrone, 
 T. Henderson, D. Ranasinghe, V. G. Zakrzewski, J. Gao, N. Rega, 
 G. Zheng, W. Liang, M. Hada, M. Ehara, K. Toyota, R. Fukuda, 
 J. Hasegawa, M. Ishida, T. Nakajima, Y. Honda, O. Kitao, H. Nakai, 
 T. Vreven, K. Throssell, J. A. Montgomery, Jr., J. E. Peralta, 
 F. Ogliaro, M. J. Bearpark, J. J. Heyd, E. N. Brothers, K. N. Kudin, 
 V. N. Staroverov, T. A. Keith, R. Kobayashi, J. Normand, 
 K. Raghavachari, A. P. Rendell, J. C. Burant, S. S. Iyengar, 
 J. Tomasi, M. Cossi, J. M. Millam, M. Klene, C. Adamo, R. Cammi, 
 J. W. Ochterski, R. L. Martin, K. Morokuma, O. Farkas, 
 J. B. Foresman, and D. J. Fox, Gaussian, Inc., Wallingford CT, 2019.
 
 ******************************************
 Gaussian 16:  ES64L-G16RevC.01  3-Jul-2019
                20-Mar-2023 
 ******************************************
 %nproc=4
 Will use up to    4 processors via shared memory.
 %mem=5760MB
 %chk=gaussian_28_water_pbe0_dz.chk
 ----------------------------------------
 #P PBE1PBE/aug-cc-pVDZ scf(maxcycle=200)
 ----------------------------------------
 1/38=1,172=1/1;
 2/12=2,17=6,18=5,40=1/2;
 3/5=16,7=10,11=2,25=1,30=1,74=-13/1,2,3;
 4//1;
 5/5=2,7=200,38=5/2;
 6/7=2,8=2,9=2,10=2,28=1/1;
 99/5=1,9=1/99;
 Leave Link    1 at Mon Mar 20 17:33:26 2023, MaxMem=   754974720 cpu:               0.2 elap:               0.0
 (Enter /opt/cluster/programs/g16-c.01/g16/l101.exe)
 --------------
 Gaussian input
 --------------
 Symbolic Z-matrix:
 Charge =  0 Multiplicity = 1
 O                     0.        0.11751   0. 
 H                     0.71834  -0.43951   0. 
 H                    -0.71537  -0.52118   0. 
 
 ITRead=  0  0  0
 MicOpt= -1 -1 -1
 NAtoms=      3 NQM=        3 NQMF=       0 NMMI=      0 NMMIF=      0
                NMic=       0 NMicF=      0.
                    Isotopes and Nuclear Properties:
 (Nuclear quadrupole moments (NQMom) in fm**2, nuclear magnetic moments (NMagM)
  in nuclear magnetons)

  Atom         1           2           3
 IAtWgt=          16           1           1
 AtmWgt=  15.9949146   1.0078250   1.0078250
 NucSpn=           0           1           1
 AtZEff=  -0.0000000  -0.0000000  -0.0000000
 NQMom=    0.0000000   0.0000000   0.0000000
 NMagM=    0.0000000   2.7928460   2.7928460
 AtZNuc=   8.0000000   1.0000000   1.0000000
 Leave Link  101 at Mon Mar 20 17:33:26 2023, MaxMem=   754974720 cpu:               0.6 elap:               0.2
 (Enter /opt/cluster/programs/g16-c.01/g16/l202.exe)
                          Input orientation:                          
 ---------------------------------------------------------------------
 Center     Atomic      Atomic             Coordinates (Angstroms)
 Number     Number       Type             X           Y           Z
 ---------------------------------------------------------------------
      1          8           0        0.000000    0.117510    0.000000
      2          1           0        0.718337   -0.439511    0.000000
      3          1           0       -0.715370   -0.521181    0.000000
 ---------------------------------------------------------------------
                    Distance matrix (angstroms):
                    1          2          3
     1  O    0.000000
     2  H    0.909000   0.000000
     3  H    0.959000   1.436032   0.000000
 Stoichiometry    H2O
 Framework group  CS[SG(H2O)]
 Deg. of freedom     3
 Full point group                 CS      NOp   2
 Largest Abelian subgroup         CS      NOp   2
 Largest concise Abelian subgroup C1      NOp   1
                         Standard orientation:                         
 ---------------------------------------------------------------------
 Center     Atomic      Atomic             Coordinates (Angstroms)
 Number     Number       Type             X           Y           Z
 ---------------------------------------------------------------------
      1          8           0        0.000000    0.119572    0.000000
      2          1           0        0.716953   -0.439230    0.000000
      3          1           0       -0.716953   -0.517343    0.000000
 ---------------------------------------------------------------------
 Rotational constants (GHZ):         795.9162763         484.0662030         301.0011277
 Leave Link  202 at Mon Mar 20 17:33:26 2023, MaxMem=   754974720 cpu:               0.0 elap:               0.0
 (Enter /opt/cluster/programs/g16-c.01/g16/l301.exe)
 Standard basis: Aug-CC-pVDZ (5D, 7F)
 Ernie: Thresh=  0.10000D-02 Tol=  0.10000D-05 Strict=F.
 Ernie:  2 primitive shells out of 39 were deleted.
 There are    32 symmetry adapted cartesian basis functions of A'  symmetry.
 There are    11 symmetry adapted cartesian basis functions of A"  symmetry.
 There are    30 symmetry adapted basis functions of A'  symmetry.
 There are    11 symmetry adapted basis functions of A"  symmetry.
    41 basis functions,    65 primitive gaussians,    43 cartesian basis functions
     5 alpha electrons        5 beta electrons
       nuclear repulsion energy         9.4401333226 Hartrees.
 IExCor= 1009 DFT=T Ex+Corr=PBE1PBE ExCW=0 ScaHFX=  0.250000
 ScaDFX=  0.750000  0.750000  1.000000  1.000000 ScalE2=  1.000000  1.000000
 IRadAn=      5 IRanWt=     -1 IRanGd=            0 ICorTp=0 IEmpDi=  4
 NAtoms=    3 NActive=    3 NUniq=    3 SFac= 1.00D+00 NAtFMM=   60 NAOKFM=F Big=F
 Integral buffers will be    131072 words long.
 Raffenetti 2 integral format.
 Two-electron integral symmetry is turned on.
 Leave Link  301 at Mon Mar 20 17:33:26 2023, MaxMem=   754974720 cpu:               0.2 elap:               0.1
 (Enter /opt/cluster/programs/g16-c.01/g16/l302.exe)
 NPDir=0 NMtPBC=     1 NCelOv=     1 NCel=       1 NClECP=     1 NCelD=      1
         NCelK=      1 NCelE2=     1 NClLst=     1 CellRange=     0.0.
 One-electron integrals computed using PRISM.
 One-electron integral symmetry used in STVInt
 NBasis=    41 RedAO= T EigKep=  2.22D-03  NBF=    30    11
 NBsUse=    41 1.00D-06 EigRej= -1.00D+00 NBFU=    30    11
 Precomputing XC quadrature grid using
 IXCGrd= 4 IRadAn=           5 IRanWt=          -1 IRanGd=           0 AccXCQ= 0.00D+00.
 Generated NRdTot=       0 NPtTot=           0 NUsed=           0 NTot=          32
 NSgBfM=    43    43    43    43    43 MxSgAt=     3 MxSgA2=     3.
 Leave Link  302 at Mon Mar 20 17:33:27 2023, MaxMem=   754974720 cpu:               0.8 elap:               0.2
 (Enter /opt/cluster/programs/g16-c.01/g16/l303.exe)
 DipDrv:  MaxL=1.
 Leave Link  303 at Mon Mar 20 17:33:27 2023, MaxMem=   754974720 cpu:               0.2 elap:               0.1
 (Enter /opt/cluster/programs/g16-c.01/g16/l401.exe)
 ExpMin= 2.97D-02 ExpMax= 1.17D+04 ExpMxC= 4.01D+02 IAcc=3 IRadAn=         5 AccDes= 0.00D+00
 Harris functional with IExCor= 1009 and IRadAn=       5 diagonalized for initial guess.
 HarFok:  IExCor= 1009 AccDes= 0.00D+00 IRadAn=         5 IDoV= 1 UseB2=F ITyADJ=14
 ICtDFT=  3500011 ScaDFX=  1.000000  1.000000  1.000000  1.000000
 FoFCou: FMM=F IPFlag=           0 FMFlag=      100000 FMFlg1=           0
         NFxFlg=           0 DoJE=T BraDBF=F KetDBF=T FulRan=T
         wScrn=  0.000000 ICntrl=       500 IOpCl=  0 I1Cent=   200000004 NGrid=           0
         NMat0=    1 NMatS0=      1 NMatT0=    0 NMatD0=    1 NMtDS0=    0 NMtDT0=    0
 Petite list used in FoFCou.
 Harris En= -76.3966921138204    
 JPrj=0 DoOrth=F DoCkMO=F.
 Initial guess orbital symmetries:
       Occupied  (A') (A') (A') (A') (A")
       Virtual   (A') (A') (A') (A") (A') (A') (A') (A') (A') (A")
                 (A") (A') (A') (A') (A') (A') (A") (A') (A") (A')
                 (A") (A') (A') (A") (A') (A") (A') (A') (A') (A')
                 (A') (A") (A') (A") (A') (A')
 The electronic state of the initial guess is 1-A'.
 Leave Link  401 at Mon Mar 20 17:33:27 2023, MaxMem=   754974720 cpu:               1.0 elap:               0.3
 (Enter /opt/cluster/programs/g16-c.01/g16/l502.exe)
 Keep R1 ints in memory in symmetry-blocked form, NReq=3831793.
 FoFCou: FMM=F IPFlag=           0 FMFlag=           0 FMFlg1=           0
         NFxFlg=           0 DoJE=F BraDBF=F KetDBF=F FulRan=T
         wScrn=  0.000000 ICntrl=       600 IOpCl=  0 I1Cent=           0 NGrid=           0
         NMat0=    1 NMatS0=    861 NMatT0=    0 NMatD0=    1 NMtDS0=    0 NMtDT0=    0
 Petite list used in FoFCou.
 Closed shell SCF:
 Using DIIS extrapolation, IDIIS=  1040.
 NGot=   754974720 LenX=   754771907 LenY=   754769617
 Requested convergence on RMS density matrix=1.00D-08 within 200 cycles.
 Requested convergence on MAX density matrix=1.00D-06.
 Requested convergence on             energy=1.00D-06.
 No special actions if energy rises.

 Cycle   1  Pass 1  IDiag  1:
 E= -76.2859975818148    
 DIIS: error= 5.41D-02 at cycle   1 NSaved=   1.
 NSaved= 1 IEnMin= 1 EnMin= -76.2859975818148     IErMin= 1 ErrMin= 5.41D-02
 ErrMax= 5.41D-02  0.00D+00 EMaxC= 1.00D-01 BMatC= 9.27D-02 BMatP= 9.27D-02
 IDIUse=3 WtCom= 4.59D-01 WtEn= 5.41D-01
 Coeff-Com:  0.100D+01
 Coeff-En:   0.100D+01
 Coeff:      0.100D+01
 Gap=     0.177 Goal=   None    Shift=    0.000
 GapD=    0.177 DampG=1.000 DampE=0.500 DampFc=0.5000 IDamp=-1.
 Damping current iteration by 5.00D-01
 RMSDP=1.01D-02 MaxDP=1.66D-01              OVMax= 2.06D-01

 Cycle   2  Pass 1  IDiag  1:
 E= -76.3049608480762     Delta-E=       -0.018963266261 Rises=F Damp=T
 DIIS: error= 1.68D-02 at cycle   2 NSaved=   2.
 NSaved= 2 IEnMin= 2 EnMin= -76.3049608480762     IErMin= 2 ErrMin= 1.68D-02
 ErrMax= 1.68D-02  0.00D+00 EMaxC= 1.00D-01 BMatC= 7.57D-03 BMatP= 9.27D-02
 IDIUse=3 WtCom= 8.32D-01 WtEn= 1.68D-01
 Coeff-Com:  0.211D+00 0.789D+00
 Coeff-En:   0.359D+00 0.641D+00
 Coeff:      0.236D+00 0.764D+00
 Gap=     0.315 Goal=   None    Shift=    0.000
 RMSDP=1.22D-03 MaxDP=1.51D-02 DE=-1.90D-02 OVMax= 1.29D-01

 Cycle   3  Pass 1  IDiag  1:
 E= -76.3561614980619     Delta-E=       -0.051200649986 Rises=F Damp=F
 DIIS: error= 1.10D-03 at cycle   3 NSaved=   3.
 NSaved= 3 IEnMin= 3 EnMin= -76.3561614980619     IErMin= 3 ErrMin= 1.10D-03
 ErrMax= 1.10D-03  0.00D+00 EMaxC= 1.00D-01 BMatC= 4.66D-05 BMatP= 7.57D-03
 IDIUse=3 WtCom= 9.89D-01 WtEn= 1.10D-02
 Coeff-Com:  0.115D-01-0.349D-01 0.102D+01
 Coeff-En:   0.000D+00 0.000D+00 0.100D+01
 Coeff:      0.114D-01-0.346D-01 0.102D+01
 Gap=     0.325 Goal=   None    Shift=    0.000
 RMSDP=1.33D-04 MaxDP=1.60D-03 DE=-5.12D-02 OVMax= 1.29D-03

 Cycle   4  Pass 1  IDiag  1:
 E= -76.3561894666779     Delta-E=       -0.000027968616 Rises=F Damp=F
 DIIS: error= 2.70D-04 at cycle   4 NSaved=   4.
 NSaved= 4 IEnMin= 4 EnMin= -76.3561894666779     IErMin= 4 ErrMin= 2.70D-04
 ErrMax= 2.70D-04  0.00D+00 EMaxC= 1.00D-01 BMatC= 2.70D-06 BMatP= 4.66D-05
 IDIUse=3 WtCom= 9.97D-01 WtEn= 2.70D-03
 Coeff-Com:  0.388D-02-0.148D-01 0.208D+00 0.803D+00
 Coeff-En:   0.000D+00 0.000D+00 0.000D+00 0.100D+01
 Coeff:      0.387D-02-0.148D-01 0.207D+00 0.804D+00
 Gap=     0.325 Goal=   None    Shift=    0.000
 RMSDP=1.77D-05 MaxDP=3.00D-04 DE=-2.80D-05 OVMax= 4.13D-04

 Cycle   5  Pass 1  IDiag  1:
 E= -76.3561912957605     Delta-E=       -0.000001829083 Rises=F Damp=F
 DIIS: error= 7.68D-05 at cycle   5 NSaved=   5.
 NSaved= 5 IEnMin= 5 EnMin= -76.3561912957605     IErMin= 5 ErrMin= 7.68D-05
 ErrMax= 7.68D-05  0.00D+00 EMaxC= 1.00D-01 BMatC= 1.51D-07 BMatP= 2.70D-06
 IDIUse=1 WtCom= 1.00D+00 WtEn= 0.00D+00
 Coeff-Com:  0.115D-02-0.185D-02 0.388D-02 0.102D+00 0.895D+00
 Coeff:      0.115D-02-0.185D-02 0.388D-02 0.102D+00 0.895D+00
 Gap=     0.325 Goal=   None    Shift=    0.000
 RMSDP=5.42D-06 MaxDP=8.03D-05 DE=-1.83D-06 OVMax= 1.09D-04

 Cycle   6  Pass 1  IDiag  1:
 E= -76.3561914126388     Delta-E=       -0.000000116878 Rises=F Damp=F
 DIIS: error= 4.73D-06 at cycle   6 NSaved=   6.
 NSaved= 6 IEnMin= 6 EnMin= -76.3561914126388     IErMin= 6 ErrMin= 4.73D-06
 ErrMax= 4.73D-06  0.00D+00 EMaxC= 1.00D-01 BMatC= 5.21D-10 BMatP= 1.51D-07
 IDIUse=1 WtCom= 1.00D+00 WtEn= 0.00D+00
 Coeff-Com:  0.719D-04-0.119D-03-0.139D-03-0.171D-02 0.413D-01 0.961D+00
 Coeff:      0.719D-04-0.119D-03-0.139D-03-0.171D-02 0.413D-01 0.961D+00
 Gap=     0.325 Goal=   None    Shift=    0.000
 RMSDP=4.46D-07 MaxDP=6.11D-06 DE=-1.17D-07 OVMax= 8.45D-06

 Cycle   7  Pass 1  IDiag  1:
 E= -76.3561914130673     Delta-E=       -0.000000000428 Rises=F Damp=F
 DIIS: error= 6.07D-07 at cycle   7 NSaved=   7.
 NSaved= 7 IEnMin= 7 EnMin= -76.3561914130673     IErMin= 7 ErrMin= 6.07D-07
 ErrMax= 6.07D-07  0.00D+00 EMaxC= 1.00D-01 BMatC= 1.63D-11 BMatP= 5.21D-10
 IDIUse=1 WtCom= 1.00D+00 WtEn= 0.00D+00
 Coeff-Com: -0.301D-04 0.451D-04-0.206D-03-0.505D-02-0.279D-01 0.252D+00
 Coeff-Com:  0.781D+00
 Coeff:     -0.301D-04 0.451D-04-0.206D-03-0.505D-02-0.279D-01 0.252D+00
 Coeff:      0.781D+00
 Gap=     0.325 Goal=   None    Shift=    0.000
 RMSDP=7.78D-08 MaxDP=7.54D-07 DE=-4.28D-10 OVMax= 1.43D-06

 Cycle   8  Pass 1  IDiag  1:
 E= -76.3561914130812     Delta-E=       -0.000000000014 Rises=F Damp=F
 DIIS: error= 9.09D-08 at cycle   8 NSaved=   8.
 NSaved= 8 IEnMin= 8 EnMin= -76.3561914130812     IErMin= 8 ErrMin= 9.09D-08
 ErrMax= 9.09D-08  0.00D+00 EMaxC= 1.00D-01 BMatC= 2.84D-13 BMatP= 1.63D-11
 IDIUse=1 WtCom= 1.00D+00 WtEn= 0.00D+00
 Coeff-Com: -0.601D-06 0.120D-05-0.588D-05 0.305D-03 0.106D-02-0.229D-01
 Coeff-Com: -0.481D-01 0.107D+01
 Coeff:     -0.601D-06 0.120D-05-0.588D-05 0.305D-03 0.106D-02-0.229D-01
 Coeff:     -0.481D-01 0.107D+01
 Gap=     0.325 Goal=   None    Shift=    0.000
 RMSDP=8.94D-09 MaxDP=1.80D-07 DE=-1.40D-11 OVMax= 2.96D-07

 SCF Done:  E(RPBE1PBE) =  -76.3561914131     A.U. after    8 cycles
            NFock=  8  Conv=0.89D-08     -V/T= 2.0040
 KE= 7.605422786530D+01 PE=-1.994297048841D+02 EE= 3.757915228314D+01
 Leave Link  502 at Mon Mar 20 17:33:27 2023, MaxMem=   754974720 cpu:               2.1 elap:               0.6
 (Enter /opt/cluster/programs/g16-c.01/g16/l601.exe)
 Copying SCF densities to generalized density rwf, IOpCl= 0 IROHF=0.

 **********************************************************************

            Population analysis using the SCF Density.

 **********************************************************************

 Orbital symmetries:
       Occupied  (A') (A') (A') (A') (A")
       Virtual   (A') (A') (A') (A") (A') (A') (A') (A') (A") (A')
                 (A") (A') (A') (A') (A') (A') (A") (A') (A") (A')
                 (A") (A') (A') (A") (A') (A") (A') (A') (A') (A')
                 (A') (A") (A') (A") (A') (A')
 The electronic state is 1-A'.
 Alpha  occ. eigenvalues --  -19.22793  -1.06330  -0.55396  -0.42123  -0.33610
 Alpha virt. eigenvalues --   -0.01074   0.03414   0.11249   0.13156   0.14726
 Alpha virt. eigenvalues --    0.17075   0.19329   0.24788   0.29585   0.30178
 Alpha virt. eigenvalues --    0.33226   0.46165   0.52163   0.54990   0.63703
 Alpha virt. eigenvalues --    0.77323   0.91895   0.93497   0.96788   1.07601
 Alpha virt. eigenvalues --    1.21952   1.24009   1.35219   1.77063   1.77926
 Alpha virt. eigenvalues --    1.89202   2.08811   2.21005   2.37584   2.43853
 Alpha virt. eigenvalues --    2.70343   3.30790   3.33006   3.33784   3.64884
 Alpha virt. eigenvalues --    3.97873
          Condensed to atoms (all electrons):
               1          2          3
     1  O    7.496988   0.338349   0.326544
     2  H    0.338349   0.682016  -0.076212
     3  H    0.326544  -0.076212   0.643634
 Mulliken charges:
               1
     1  O   -0.161881
     2  H    0.055847
     3  H    0.106034
 Sum of Mulliken charges =   0.00000
 Mulliken charges with hydrogens summed into heavy atoms:
               1
     1  O    0.000000
 Electronic spatial extent (au):  <R**2>=             19.5929
 Charge=              0.0000 electrons
 Dipole moment (field-independent basis, Debye):
    X=              0.0264    Y=             -1.9124    Z=              0.0000  Tot=              1.9126
 Quadrupole moment (field-independent basis, Debye-Ang):
   XX=             -4.6852   YY=             -6.2920   ZZ=             -7.6765
   XY=              0.1203   XZ=              0.0000   YZ=              0.0000
 Traceless Quadrupole moment (field-independent basis, Debye-Ang):
   XX=              1.5327   YY=             -0.0741   ZZ=             -1.4586
   XY=              0.1203   XZ=              0.0000   YZ=              0.0000
 Octapole moment (field-independent basis, Debye-Ang**2):
  XXX=              0.0735  YYY=             -1.1173  ZZZ=              0.0000  XYY=             -0.0791
  XXY=             -1.1998  XXZ=              0.0000  XZZ=              0.0297  YZZ=             -0.2645
  YYZ=              0.0000  XYZ=              0.0000
 Hexadecapole moment (field-independent basis, Debye-Ang**3):
 XXXX=             -6.5181 YYYY=             -7.8084 ZZZZ=             -7.4964 XXXY=             -0.0104
 XXXZ=              0.0000 YYYX=             -0.0025 YYYZ=              0.0000 ZZZX=              0.0000
 ZZZY=              0.0000 XXYY=             -2.0891 XXZZ=             -2.5920 YYZZ=             -2.6031
 XXYZ=              0.0000 YYXZ=              0.0000 ZZXY=             -0.0326
 N-N= 9.440133322590D+00 E-N=-1.994297015976D+02  KE= 7.605422786530D+01
 Symmetry A'   KE= 7.161038677209D+01
 Symmetry A"   KE= 4.443841093211D+00
 No NMR shielding tensors so no spin-rotation constants.
 Leave Link  601 at Mon Mar 20 17:33:28 2023, MaxMem=   754974720 cpu:               0.6 elap:               0.1
 (Enter /opt/cluster/programs/g16-c.01/g16/l9999.exe)
 Unable to Open any file for archive entry.
 1\1\GINC-NODE58\SP\RPBE1PBE\Aug-CC-pVDZ\H2O1\BOITTIER\20-Mar-2023\0\\#
 P PBE1PBE/aug-cc-pVDZ scf(maxcycle=200)\\Gaussian input\\0,1\O,0,0.,0.
 11751,0.\H,0,0.7183372325,-0.4395112028,0.\H,0,-0.7153700578,-0.521181
 3812,0.\\Version=ES64L-G16RevC.01\State=1-A'\HF=-76.3561914\RMSD=8.940
 e-09\Dipole=0.0122487,-0.7523653,0.\Quadrupole=1.1390737,-0.0546539,-1
 .0844197,0.0924047,0.,0.\PG=CS [SG(H2O1)]\\@
 The archive entry for this job was punched.


      THE ONE-EYED VIEW OF OUR UNIVERSE SAYS YOU MUST NOT LOOK
      FAR AFIELD FOR PROBLEMS.  SUCH PROBLEMS MAY NEVER ARRIVE. 
      INSTEAD, TEND TO THE WOLF WITHIN YOUR FENCES.
      THE PACKS RANGING OUTSIDE MAY NOT EVEN EXIST.

                              -- THE AZHAR BOOK SHAMRA I:4
                                 CHILDREN OF DUNE, BY FRANK HERBERT
 Job cpu time:       0 days  0 hours  0 minutes  5.9 seconds.
 Elapsed time:       0 days  0 hours  0 minutes  1.6 seconds.
 File lengths (MBytes):  RWF=      6 Int=      0 D2E=      0 Chk=      1 Scr=      1
 Normal termination of Gaussian 16 at Mon Mar 20 17:33:28 2023.
