 Entering Gaussian System, Link 0=/opt/cluster/programs/g16-c.01/g16/g16
 Input=/scratch/boittier/jobs/tmp.7262344/gaussian_146_water_ccsdt_adz.com
 Output=/scratch/boittier/jobs/tmp.7262344/gaussian_146_water_ccsdt_adz.out
 Initial command:
 /opt/cluster/programs/g16-c.01/g16/l1.exe "/scratch/boittier/jobs/tmp.7262344/Gau-175620.inp" -scrdir="/scratch/boittier/jobs/tmp.7262344/"
 Entering Link 1 = /opt/cluster/programs/g16-c.01/g16/l1.exe PID=    175621.
  
 Copyright (c) 1988-2019, Gaussian, Inc.  All Rights Reserved.
  
 This is part of the Gaussian(R) 16 program.  It is based on
 the Gaussian(R) 09 system (copyright 2009, Gaussian, Inc.),
 the Gaussian(R) 03 system (copyright 2003, Gaussian, Inc.),
 the Gaussian(R) 98 system (copyright 1998, Gaussian, Inc.),
 the Gaussian(R) 94 system (copyright 1995, Gaussian, Inc.),
 the Gaussian 92(TM) system (copyright 1992, Gaussian, Inc.),
 the Gaussian 90(TM) system (copyright 1990, Gaussian, Inc.),
 the Gaussian 88(TM) system (copyright 1988, Gaussian, Inc.),
 the Gaussian 86(TM) system (copyright 1986, Carnegie Mellon
 University), and the Gaussian 82(TM) system (copyright 1983,
 Carnegie Mellon University). Gaussian is a federally registered
 trademark of Gaussian, Inc.
  
 This software contains proprietary and confidential information,
 including trade secrets, belonging to Gaussian, Inc.
  
 This software is provided under written license and may be
 used, copied, transmitted, or stored only in accord with that
 written license.
  
 The following legend is applicable only to US Government
 contracts under FAR:
  
                    RESTRICTED RIGHTS LEGEND
  
 Use, reproduction and disclosure by the US Government is
 subject to restrictions as set forth in subparagraphs (a)
 and (c) of the Commercial Computer Software - Restricted
 Rights clause in FAR 52.227-19.
  
 Gaussian, Inc.
 340 Quinnipiac St., Bldg. 40, Wallingford CT 06492
  
  
 ---------------------------------------------------------------
 Warning -- This program may not be used in any manner that
 competes with the business of Gaussian, Inc. or will provide
 assistance to any competitor of Gaussian, Inc.  The licensee
 of this program is prohibited from giving any competitor of
 Gaussian, Inc. access to this program.  By using this program,
 the user acknowledges that Gaussian, Inc. is engaged in the
 business of creating and licensing software in the field of
 computational chemistry and represents and warrants to the
 licensee that it is not a competitor of Gaussian, Inc. and that
 it will not use this program in any manner prohibited above.
 ---------------------------------------------------------------
  

 Cite this work as:
 Gaussian 16, Revision C.01,
 M. J. Frisch, G. W. Trucks, H. B. Schlegel, G. E. Scuseria, 
 M. A. Robb, J. R. Cheeseman, G. Scalmani, V. Barone, 
 G. A. Petersson, H. Nakatsuji, X. Li, M. Caricato, A. V. Marenich, 
 J. Bloino, B. G. Janesko, R. Gomperts, B. Mennucci, H. P. Hratchian, 
 J. V. Ortiz, A. F. Izmaylov, J. L. Sonnenberg, D. Williams-Young, 
 F. Ding, F. Lipparini, F. Egidi, J. Goings, B. Peng, A. Petrone, 
 T. Henderson, D. Ranasinghe, V. G. Zakrzewski, J. Gao, N. Rega, 
 G. Zheng, W. Liang, M. Hada, M. Ehara, K. Toyota, R. Fukuda, 
 J. Hasegawa, M. Ishida, T. Nakajima, Y. Honda, O. Kitao, H. Nakai, 
 T. Vreven, K. Throssell, J. A. Montgomery, Jr., J. E. Peralta, 
 F. Ogliaro, M. J. Bearpark, J. J. Heyd, E. N. Brothers, K. N. Kudin, 
 V. N. Staroverov, T. A. Keith, R. Kobayashi, J. Normand, 
 K. Raghavachari, A. P. Rendell, J. C. Burant, S. S. Iyengar, 
 J. Tomasi, M. Cossi, J. M. Millam, M. Klene, C. Adamo, R. Cammi, 
 J. W. Ochterski, R. L. Martin, K. Morokuma, O. Farkas, 
 J. B. Foresman, and D. J. Fox, Gaussian, Inc., Wallingford CT, 2019.
 
 ******************************************
 Gaussian 16:  ES64L-G16RevC.01  3-Jul-2019
                 8-Feb-2023 
 ******************************************
 %nproc=4
 Will use up to    4 processors via shared memory.
 %mem=5760MB
 %chk=gaussian_146_water_ccsdt_adz.chk
 ----------------------------------------
 #P CCSD(T)/aug-cc-pVDZ scf(maxcycle=200)
 ----------------------------------------
 1/38=1,172=1/1;
 2/12=2,17=6,18=5,40=1/2;
 3/5=16,7=10,11=9,25=1,30=1/1,2,3;
 4//1;
 5/5=2,7=200,38=5/2;
 8/6=4,9=120000,10=1/1,4;
 9/5=7,14=2/13;
 6/7=2,8=2,9=2,10=2/1;
 99/5=1,9=1/99;
 Leave Link    1 at Wed Feb  8 14:50:38 2023, MaxMem=   754974720 cpu:               0.2 elap:               0.1
 (Enter /opt/cluster/programs/g16-c.01/g16/l101.exe)
 --------------
 Gaussian input
 --------------
 Symbolic Z-matrix:
 Charge =  0 Multiplicity = 1
 O                     0.        0.11751   0. 
 H                     0.79736  -0.50079   0. 
 H                    -0.66907  -0.56953   0. 
 
 ITRead=  0  0  0
 MicOpt= -1 -1 -1
 NAtoms=      3 NQM=        3 NQMF=       0 NMMI=      0 NMMIF=      0
                NMic=       0 NMicF=      0.
                    Isotopes and Nuclear Properties:
 (Nuclear quadrupole moments (NQMom) in fm**2, nuclear magnetic moments (NMagM)
  in nuclear magnetons)

  Atom         1           2           3
 IAtWgt=          16           1           1
 AtmWgt=  15.9949146   1.0078250   1.0078250
 NucSpn=           0           1           1
 AtZEff=  -0.0000000  -0.0000000  -0.0000000
 NQMom=    0.0000000   0.0000000   0.0000000
 NMagM=    0.0000000   2.7928460   2.7928460
 AtZNuc=   8.0000000   1.0000000   1.0000000
 Leave Link  101 at Wed Feb  8 14:50:38 2023, MaxMem=   754974720 cpu:               1.0 elap:               0.5
 (Enter /opt/cluster/programs/g16-c.01/g16/l202.exe)
                          Input orientation:                          
 ---------------------------------------------------------------------
 Center     Atomic      Atomic             Coordinates (Angstroms)
 Number     Number       Type             X           Y           Z
 ---------------------------------------------------------------------
      1          8           0        0.000000    0.117510    0.000000
      2          1           0        0.797362   -0.500790    0.000000
      3          1           0       -0.669075   -0.569527    0.000000
 ---------------------------------------------------------------------
                    Distance matrix (angstroms):
                    1          2          3
     1  O    0.000000
     2  H    1.009000   0.000000
     3  H    0.959000   1.468047   0.000000
 Stoichiometry    H2O
 Framework group  CS[SG(H2O)]
 Deg. of freedom     3
 Full point group                 CS      NOp   2
 Largest Abelian subgroup         CS      NOp   2
 Largest concise Abelian subgroup C1      NOp   1
                         Standard orientation:                         
 ---------------------------------------------------------------------
 Center     Atomic      Atomic             Coordinates (Angstroms)
 Number     Number       Type             X           Y           Z
 ---------------------------------------------------------------------
      1          8           0        0.000000    0.131163   -0.000000
      2          1           0        0.733064   -0.562161    0.000000
      3          1           0       -0.733064   -0.487140   -0.000000
 ---------------------------------------------------------------------
 Rotational constants (GHZ):         662.2457004         462.4728409         272.3087059
 Leave Link  202 at Wed Feb  8 14:50:38 2023, MaxMem=   754974720 cpu:               0.1 elap:               0.0
 (Enter /opt/cluster/programs/g16-c.01/g16/l301.exe)
 Standard basis: Aug-CC-pVDZ (5D, 7F)
 Ernie: Thresh=  0.10000D-02 Tol=  0.10000D-05 Strict=F.
 Ernie:  2 primitive shells out of 39 were deleted.
 There are    32 symmetry adapted cartesian basis functions of A'  symmetry.
 There are    11 symmetry adapted cartesian basis functions of A"  symmetry.
 There are    30 symmetry adapted basis functions of A'  symmetry.
 There are    11 symmetry adapted basis functions of A"  symmetry.
    41 basis functions,    65 primitive gaussians,    43 cartesian basis functions
     5 alpha electrons        5 beta electrons
       nuclear repulsion energy         8.9705286230 Hartrees.
 IExCor=    0 DFT=F Ex=HF Corr=None ExCW=0 ScaHFX=  1.000000
 ScaDFX=  1.000000  1.000000  1.000000  1.000000 ScalE2=  1.000000  1.000000
 IRadAn=      5 IRanWt=     -1 IRanGd=            0 ICorTp=0 IEmpDi=  4
 NAtoms=    3 NActive=    3 NUniq=    3 SFac= 1.00D+00 NAtFMM=   60 NAOKFM=F Big=F
 Integral buffers will be    131072 words long.
 Raffenetti 1 integral format.
 Two-electron integral symmetry is turned on.
 Leave Link  301 at Wed Feb  8 14:50:38 2023, MaxMem=   754974720 cpu:               0.1 elap:               0.0
 (Enter /opt/cluster/programs/g16-c.01/g16/l302.exe)
 NPDir=0 NMtPBC=     1 NCelOv=     1 NCel=       1 NClECP=     1 NCelD=      1
         NCelK=      1 NCelE2=     1 NClLst=     1 CellRange=     0.0.
 One-electron integrals computed using PRISM.
 One-electron integral symmetry used in STVInt
 NBasis=    41 RedAO= T EigKep=  2.55D-03  NBF=    30    11
 NBsUse=    41 1.00D-06 EigRej= -1.00D+00 NBFU=    30    11
 Leave Link  302 at Wed Feb  8 14:50:39 2023, MaxMem=   754974720 cpu:               1.1 elap:               0.5
 (Enter /opt/cluster/programs/g16-c.01/g16/l303.exe)
 DipDrv:  MaxL=1.
 Leave Link  303 at Wed Feb  8 14:50:39 2023, MaxMem=   754974720 cpu:               0.2 elap:               0.1
 (Enter /opt/cluster/programs/g16-c.01/g16/l401.exe)
 ExpMin= 2.97D-02 ExpMax= 1.17D+04 ExpMxC= 4.01D+02 IAcc=3 IRadAn=         5 AccDes= 0.00D+00
 Harris functional with IExCor=  205 and IRadAn=       5 diagonalized for initial guess.
 HarFok:  IExCor=  205 AccDes= 0.00D+00 IRadAn=         5 IDoV= 1 UseB2=F ITyADJ=14
 ICtDFT=  3500011 ScaDFX=  1.000000  1.000000  1.000000  1.000000
 FoFCou: FMM=F IPFlag=           0 FMFlag=      100000 FMFlg1=           0
         NFxFlg=           0 DoJE=T BraDBF=F KetDBF=T FulRan=T
         wScrn=  0.000000 ICntrl=       500 IOpCl=  0 I1Cent=   200000004 NGrid=           0
         NMat0=    1 NMatS0=      1 NMatT0=    0 NMatD0=    1 NMtDS0=    0 NMtDT0=    0
 Petite list used in FoFCou.
 Harris En= -76.1199456973853    
 JPrj=0 DoOrth=F DoCkMO=F.
 Initial guess orbital symmetries:
       Occupied  (A') (A') (A') (A') (A")
       Virtual   (A') (A') (A') (A") (A') (A') (A') (A') (A') (A")
                 (A") (A') (A') (A') (A') (A') (A") (A') (A") (A')
                 (A") (A') (A') (A") (A') (A") (A') (A') (A') (A')
                 (A') (A") (A') (A") (A') (A')
 The electronic state of the initial guess is 1-A'.
 Leave Link  401 at Wed Feb  8 14:50:39 2023, MaxMem=   754974720 cpu:               0.7 elap:               0.2
 (Enter /opt/cluster/programs/g16-c.01/g16/l502.exe)
 Keep R1 ints in memory in symmetry-blocked form, NReq=1210668.
 FoFCou: FMM=F IPFlag=           0 FMFlag=           0 FMFlg1=           0
         NFxFlg=           0 DoJE=F BraDBF=F KetDBF=F FulRan=T
         wScrn=  0.000000 ICntrl=       600 IOpCl=  0 I1Cent=           0 NGrid=           0
         NMat0=    1 NMatS0=    861 NMatT0=    0 NMatD0=    1 NMtDS0=    0 NMtDT0=    0
 Petite list used in FoFCou.
 Closed shell SCF:
 Using DIIS extrapolation, IDIIS=  1040.
 NGot=   754974720 LenX=   754771907 LenY=   754769617
 Requested convergence on RMS density matrix=1.00D-08 within 200 cycles.
 Requested convergence on MAX density matrix=1.00D-06.
 Requested convergence on             energy=1.00D-06.
 No special actions if energy rises.

 Cycle   1  Pass 1  IDiag  1:
 E= -75.9620956809254    
 DIIS: error= 4.90D-02 at cycle   1 NSaved=   1.
 NSaved= 1 IEnMin= 1 EnMin= -75.9620956809254     IErMin= 1 ErrMin= 4.90D-02
 ErrMax= 4.90D-02  0.00D+00 EMaxC= 1.00D-01 BMatC= 1.12D-01 BMatP= 1.12D-01
 IDIUse=3 WtCom= 5.10D-01 WtEn= 4.90D-01
 Coeff-Com:  0.100D+01
 Coeff-En:   0.100D+01
 Coeff:      0.100D+01
 Gap=     0.461 Goal=   None    Shift=    0.000
 GapD=    0.461 DampG=2.000 DampE=0.500 DampFc=1.0000 IDamp=-1.
 RMSDP=6.16D-03 MaxDP=1.13D-01              OVMax= 1.22D-01

 Cycle   2  Pass 1  IDiag  1:
 E= -76.0031527234903     Delta-E=       -0.041057042565 Rises=F Damp=F
 DIIS: error= 4.05D-02 at cycle   2 NSaved=   2.
 NSaved= 2 IEnMin= 2 EnMin= -76.0031527234903     IErMin= 2 ErrMin= 4.05D-02
 ErrMax= 4.05D-02  0.00D+00 EMaxC= 1.00D-01 BMatC= 4.56D-02 BMatP= 1.12D-01
 IDIUse=3 WtCom= 5.95D-01 WtEn= 4.05D-01
 Coeff-Com:  0.379D+00 0.621D+00
 Coeff-En:   0.232D+00 0.768D+00
 Coeff:      0.320D+00 0.680D+00
 Gap=     0.560 Goal=   None    Shift=    0.000
 RMSDP=2.96D-03 MaxDP=5.41D-02 DE=-4.11D-02 OVMax= 5.89D-02

 Cycle   3  Pass 1  IDiag  1:
 E= -76.0348504376785     Delta-E=       -0.031697714188 Rises=F Damp=F
 DIIS: error= 4.31D-03 at cycle   3 NSaved=   3.
 NSaved= 3 IEnMin= 3 EnMin= -76.0348504376785     IErMin= 3 ErrMin= 4.31D-03
 ErrMax= 4.31D-03  0.00D+00 EMaxC= 1.00D-01 BMatC= 1.09D-03 BMatP= 4.56D-02
 IDIUse=3 WtCom= 9.57D-01 WtEn= 4.31D-02
 Coeff-Com: -0.391D-01 0.885D-01 0.951D+00
 Coeff-En:   0.000D+00 0.000D+00 0.100D+01
 Coeff:     -0.374D-01 0.846D-01 0.953D+00
 Gap=     0.542 Goal=   None    Shift=    0.000
 RMSDP=4.61D-04 MaxDP=8.30D-03 DE=-3.17D-02 OVMax= 9.58D-03

 Cycle   4  Pass 1  IDiag  1:
 E= -76.0357032830874     Delta-E=       -0.000852845409 Rises=F Damp=F
 DIIS: error= 7.34D-04 at cycle   4 NSaved=   4.
 NSaved= 4 IEnMin= 4 EnMin= -76.0357032830874     IErMin= 4 ErrMin= 7.34D-04
 ErrMax= 7.34D-04  0.00D+00 EMaxC= 1.00D-01 BMatC= 8.40D-06 BMatP= 1.09D-03
 IDIUse=3 WtCom= 9.93D-01 WtEn= 7.34D-03
 Coeff-Com:  0.956D-02-0.432D-01-0.344D+00 0.138D+01
 Coeff-En:   0.000D+00 0.000D+00 0.000D+00 0.100D+01
 Coeff:      0.949D-02-0.429D-01-0.342D+00 0.138D+01
 Gap=     0.543 Goal=   None    Shift=    0.000
 RMSDP=1.18D-04 MaxDP=1.37D-03 DE=-8.53D-04 OVMax= 2.21D-03

 Cycle   5  Pass 1  IDiag  1:
 E= -76.0357244609366     Delta-E=       -0.000021177849 Rises=F Damp=F
 DIIS: error= 1.98D-04 at cycle   5 NSaved=   5.
 NSaved= 5 IEnMin= 5 EnMin= -76.0357244609366     IErMin= 5 ErrMin= 1.98D-04
 ErrMax= 1.98D-04  0.00D+00 EMaxC= 1.00D-01 BMatC= 3.62D-07 BMatP= 8.40D-06
 IDIUse=3 WtCom= 9.98D-01 WtEn= 1.98D-03
 Coeff-Com: -0.319D-03 0.440D-02 0.326D-01-0.301D+00 0.126D+01
 Coeff-En:   0.000D+00 0.000D+00 0.000D+00 0.000D+00 0.100D+01
 Coeff:     -0.318D-03 0.439D-02 0.326D-01-0.300D+00 0.126D+01
 Gap=     0.544 Goal=   None    Shift=    0.000
 RMSDP=2.69D-05 MaxDP=4.40D-04 DE=-2.12D-05 OVMax= 6.04D-04

 Cycle   6  Pass 1  IDiag  1:
 E= -76.0357255448900     Delta-E=       -0.000001083953 Rises=F Damp=F
 DIIS: error= 3.61D-05 at cycle   6 NSaved=   6.
 NSaved= 6 IEnMin= 6 EnMin= -76.0357255448900     IErMin= 6 ErrMin= 3.61D-05
 ErrMax= 3.61D-05  0.00D+00 EMaxC= 1.00D-01 BMatC= 1.38D-08 BMatP= 3.62D-07
 IDIUse=1 WtCom= 1.00D+00 WtEn= 0.00D+00
 Coeff-Com: -0.378D-03 0.134D-02 0.107D-01-0.189D-01-0.222D+00 0.123D+01
 Coeff:     -0.378D-03 0.134D-02 0.107D-01-0.189D-01-0.222D+00 0.123D+01
 Gap=     0.544 Goal=   None    Shift=    0.000
 RMSDP=4.75D-06 MaxDP=1.01D-04 DE=-1.08D-06 OVMax= 1.34D-04

 Cycle   7  Pass 1  IDiag  1:
 E= -76.0357255865415     Delta-E=       -0.000000041652 Rises=F Damp=F
 DIIS: error= 5.90D-06 at cycle   7 NSaved=   7.
 NSaved= 7 IEnMin= 7 EnMin= -76.0357255865415     IErMin= 7 ErrMin= 5.90D-06
 ErrMax= 5.90D-06  0.00D+00 EMaxC= 1.00D-01 BMatC= 5.91D-10 BMatP= 1.38D-08
 IDIUse=1 WtCom= 1.00D+00 WtEn= 0.00D+00
 Coeff-Com:  0.134D-03-0.627D-03-0.520D-02 0.226D-01 0.186D-02-0.331D+00
 Coeff-Com:  0.131D+01
 Coeff:      0.134D-03-0.627D-03-0.520D-02 0.226D-01 0.186D-02-0.331D+00
 Coeff:      0.131D+01
 Gap=     0.544 Goal=   None    Shift=    0.000
 RMSDP=8.94D-07 MaxDP=1.47D-05 DE=-4.17D-08 OVMax= 2.37D-05

 Cycle   8  Pass 1  IDiag  1:
 E= -76.0357255879476     Delta-E=       -0.000000001406 Rises=F Damp=F
 DIIS: error= 6.86D-07 at cycle   8 NSaved=   8.
 NSaved= 8 IEnMin= 8 EnMin= -76.0357255879476     IErMin= 8 ErrMin= 6.86D-07
 ErrMax= 6.86D-07  0.00D+00 EMaxC= 1.00D-01 BMatC= 1.50D-11 BMatP= 5.91D-10
 IDIUse=1 WtCom= 1.00D+00 WtEn= 0.00D+00
 Coeff-Com: -0.250D-04 0.130D-03 0.113D-02-0.594D-02 0.616D-02 0.597D-01
 Coeff-Com: -0.392D+00 0.133D+01
 Coeff:     -0.250D-04 0.130D-03 0.113D-02-0.594D-02 0.616D-02 0.597D-01
 Coeff:     -0.392D+00 0.133D+01
 Gap=     0.544 Goal=   None    Shift=    0.000
 RMSDP=2.00D-07 MaxDP=2.52D-06 DE=-1.41D-09 OVMax= 3.76D-06

 Cycle   9  Pass 1  IDiag  1:
 E= -76.0357255879872     Delta-E=       -0.000000000040 Rises=F Damp=F
 DIIS: error= 1.03D-07 at cycle   9 NSaved=   9.
 NSaved= 9 IEnMin= 9 EnMin= -76.0357255879872     IErMin= 9 ErrMin= 1.03D-07
 ErrMax= 1.03D-07  0.00D+00 EMaxC= 1.00D-01 BMatC= 4.37D-13 BMatP= 1.50D-11
 IDIUse=1 WtCom= 1.00D+00 WtEn= 0.00D+00
 Coeff-Com: -0.199D-06-0.528D-06-0.230D-04 0.300D-03-0.106D-02-0.288D-03
 Coeff-Com:  0.314D-01-0.241D+00 0.121D+01
 Coeff:     -0.199D-06-0.528D-06-0.230D-04 0.300D-03-0.106D-02-0.288D-03
 Coeff:      0.314D-01-0.241D+00 0.121D+01
 Gap=     0.544 Goal=   None    Shift=    0.000
 RMSDP=3.11D-08 MaxDP=3.69D-07 DE=-3.96D-11 OVMax= 5.69D-07

 Cycle  10  Pass 1  IDiag  1:
 E= -76.0357255879884     Delta-E=       -0.000000000001 Rises=F Damp=F
 DIIS: error= 2.81D-08 at cycle  10 NSaved=  10.
 NSaved=10 IEnMin=10 EnMin= -76.0357255879884     IErMin=10 ErrMin= 2.81D-08
 ErrMax= 2.81D-08  0.00D+00 EMaxC= 1.00D-01 BMatC= 2.75D-14 BMatP= 4.37D-13
 IDIUse=1 WtCom= 1.00D+00 WtEn= 0.00D+00
 Coeff-Com:  0.141D-05-0.705D-05-0.565D-04 0.250D-03-0.300D-04-0.340D-02
 Coeff-Com:  0.155D-01-0.269D-01-0.266D+00 0.128D+01
 Coeff:      0.141D-05-0.705D-05-0.565D-04 0.250D-03-0.300D-04-0.340D-02
 Coeff:      0.155D-01-0.269D-01-0.266D+00 0.128D+01
 Gap=     0.544 Goal=   None    Shift=    0.000
 RMSDP=8.96D-09 MaxDP=9.43D-08 DE=-1.17D-12 OVMax= 2.02D-07

 SCF Done:  E(RHF) =  -76.0357255880     A.U. after   10 cycles
            NFock= 10  Conv=0.90D-08     -V/T= 2.0026
 KE= 7.584140749763D+01 PE=-1.983941824469D+02 EE= 3.754652073831D+01
 Leave Link  502 at Wed Feb  8 14:50:42 2023, MaxMem=   754974720 cpu:               5.1 elap:               2.6
 (Enter /opt/cluster/programs/g16-c.01/g16/l801.exe)
 Windowed orbitals will be sorted by symmetry type.
 ExpMin= 2.97D-02 ExpMax= 1.17D+04 ExpMxC= 4.01D+02 IAcc=3 IRadAn=         5 AccDes= 0.00D+00
 HarFok:  IExCor=  205 AccDes= 0.00D+00 IRadAn=         5 IDoV=-2 UseB2=F ITyADJ=14
 ICtDFT= 12500011 ScaDFX=  1.000000  1.000000  1.000000  1.000000
 Largest valence mixing into a core orbital is  6.27D-05
 Largest core mixing into a valence orbital is  1.80D-05
 Range of M.O.s used for correlation:     2    41
 NBasis=    41 NAE=     5 NBE=     5 NFC=     1 NFV=     0
 NROrb=     40 NOA=     4 NOB=     4 NVA=    36 NVB=    36
 Leave Link  801 at Wed Feb  8 14:50:42 2023, MaxMem=   754974720 cpu:               0.4 elap:               0.2
 (Enter /opt/cluster/programs/g16-c.01/g16/l804.exe)
 Closed-shell transformation, MDV=   754974720 ITran=4 ISComp=2.
 Unit  1 TFree=         57024 TCopy=        242858.
 Semi-Direct transformation.
 ModeAB=           2 MOrb=             4 LenV=     754769661
 LASXX=        60334 LTotXX=       60334 LenRXX=       60334
 LTotAB=       65632 MaxLAS=      151360 LenRXY=      151360
 NonZer=      159520 LenScr=      785920 LnRSAI=           0
 LnScr1=           0 LExtra=           0 Total=       997614
 MaxDsk=          -1 SrtSym=           F ITran=            4
 DoSDTr:  NPSUse=  4
 JobTyp=0 Pass  1:  I=   1 to   4.
 (rs|ai) integrals will be sorted in core.
 Complete sort for first half transformation.
 First half transformation complete.
 Complete sort for second half transformation.
 Second half transformation complete.
 Spin components of T(2) and E(2):
     alpha-alpha T2 =       0.7994772471D-02 E2=     -0.2828407746D-01
     alpha-beta  T2 =       0.4538324483D-01 E2=     -0.1658545955D+00
     beta-beta   T2 =       0.7994772471D-02 E2=     -0.2828407746D-01
 ANorm=    0.1030229484D+01
 E2 =    -0.2224227504D+00 EUMP2 =    -0.76258148338370D+02
 Leave Link  804 at Wed Feb  8 14:50:42 2023, MaxMem=   754974720 cpu:               0.3 elap:               0.1
 (Enter /opt/cluster/programs/g16-c.01/g16/l913.exe)
 CIDS:  MDV=   754974720.
 Frozen-core window:  NFC=   1 NFV=   0.
 IFCWin=0 IBDFC=1 NFBD=     0     0 NFCmp=     0     0 NFFFC=     0     0
 Using DD3R+UMP44R for 1st iteration.
 Using DD4RQ for 2nd and later iterations.
 Keep R2 and R3 ints in memory in symmetry-blocked form, NReq=1234037.
 FoFCou: FMM=F IPFlag=           0 FMFlag=           0 FMFlg1=           0
         NFxFlg=           0 DoJE=F BraDBF=F KetDBF=F FulRan=T
         wScrn=  0.000000 ICntrl=       600 IOpCl=  0 I1Cent=           0 NGrid=           0
         NMat0=    1 NMatS0=    861 NMatT0=    0 NMatD0=    1 NMtDS0=    0 NMtDT0=    0
 Petite list used in FoFCou.
 CIDS: In Core Option IDoMem=           1.
 CCSD(T)
 =======
 Iterations=  50 Convergence= 0.100D-06
 Produce multiple copies of IABC intergrals
 Iteration Nr.   1
 **********************
 DD1Dir will call FoFMem   1 times, MxPair=        20
 NAB=    10 NAA=     0 NBB=     0.
 MP4(R+Q)=  0.25872583D-02
 Maximum subspace dimension=  5
 A-vector RMS=  5.6120363D-03 Max=  1.7779729D-02 conv= 1.00D-05.
 RLE energy=       -0.2239298979
 E3=       -0.41758095D-02        EUMP3=      -0.76262324148D+02
 E4(DQ)=   -0.16663639D-02        UMP4(DQ)=   -0.76263990512D+02
 E4(SDQ)=  -0.35484351D-02        UMP4(SDQ)=  -0.76265872583D+02
 VARIATIONAL ENERGIES WITH THE FIRST-ORDER WAVEFUNCTION:
 DE(Corr)= -0.22391979     E(Corr)=     -76.259645380    
 NORM(A)=   0.10311247D+01
 Iteration Nr.   2
 **********************
 DD1Dir will call FoFMem   1 times, MxPair=        20
 NAB=    10 NAA=     0 NBB=     0.
 A-vector RMS=  6.8021633D-04 Max=  3.1553382D-03 conv= 1.00D-05.
 RLE energy=       -0.2294756584
 DE(Corr)= -0.22882379     E(CORR)=     -76.264549378     Delta=-4.90D-03
 NORM(A)=   0.10335449D+01
 Iteration Nr.   3
 **********************
 DD1Dir will call FoFMem   1 times, MxPair=        20
 NAB=    10 NAA=     0 NBB=     0.
 A-vector RMS=  7.8680051D-04 Max=  3.0152634D-03 conv= 1.00D-05.
 RLE energy=       -0.2298873250
 DE(Corr)= -0.22942132     E(CORR)=     -76.265146908     Delta=-5.98D-04
 NORM(A)=   0.10341321D+01
 Iteration Nr.   4
 **********************
 DD1Dir will call FoFMem   1 times, MxPair=        20
 NAB=    10 NAA=     0 NBB=     0.
 A-vector RMS=  1.0430501D-04 Max=  3.8326068D-04 conv= 1.00D-05.
 RLE energy=       -0.2299306298
 DE(Corr)= -0.22989629     E(CORR)=     -76.265621879     Delta=-4.75D-04
 NORM(A)=   0.10342612D+01
 Iteration Nr.   5
 **********************
 DD1Dir will call FoFMem   1 times, MxPair=        20
 NAB=    10 NAA=     0 NBB=     0.
 A-vector RMS=  4.0313216D-05 Max=  1.6815274D-04 conv= 1.00D-05.
 RLE energy=       -0.2299379296
 DE(Corr)= -0.22993350     E(CORR)=     -76.265659090     Delta=-3.72D-05
 NORM(A)=   0.10342818D+01
 Iteration Nr.   6
 **********************
 DD1Dir will call FoFMem   1 times, MxPair=        20
 NAB=    10 NAA=     0 NBB=     0.
 A-vector RMS=  1.1240104D-05 Max=  4.4392217D-05 conv= 1.00D-05.
 RLE energy=       -0.2299348551
 DE(Corr)= -0.22993614     E(CORR)=     -76.265661725     Delta=-2.64D-06
 NORM(A)=   0.10342836D+01
 Iteration Nr.   7
 **********************
 DD1Dir will call FoFMem   1 times, MxPair=        20
 NAB=    10 NAA=     0 NBB=     0.
 A-vector RMS=  4.1739050D-06 Max=  1.3257431D-05 conv= 1.00D-05.
 RLE energy=       -0.2299354302
 DE(Corr)= -0.22993617     E(CORR)=     -76.265661760     Delta=-3.58D-08
 NORM(A)=   0.10342842D+01
 Iteration Nr.   8
 **********************
 DD1Dir will call FoFMem   1 times, MxPair=        20
 NAB=    10 NAA=     0 NBB=     0.
 A-vector RMS=  1.3960766D-06 Max=  5.4493936D-06 conv= 1.00D-05.
 RLE energy=       -0.2299357041
 DE(Corr)= -0.22993580     E(CORR)=     -76.265661388     Delta= 3.72D-07
 NORM(A)=   0.10342846D+01
 Iteration Nr.   9
 **********************
 DD1Dir will call FoFMem   1 times, MxPair=        20
 NAB=    10 NAA=     0 NBB=     0.
 A-vector RMS=  3.4394476D-07 Max=  1.1962092D-06 conv= 1.00D-05.
 RLE energy=       -0.2299359417
 DE(Corr)= -0.22993595     E(CORR)=     -76.265661538     Delta=-1.49D-07
 NORM(A)=   0.10342848D+01
 Iteration Nr.  10
 **********************
 DD1Dir will call FoFMem   1 times, MxPair=        20
 NAB=    10 NAA=     0 NBB=     0.
 A-vector RMS=  1.6912447D-07 Max=  5.6509048D-07 conv= 1.00D-05.
 RLE energy=       -0.2299359825
 DE(Corr)= -0.22993596     E(CORR)=     -76.265661551     Delta=-1.27D-08
 NORM(A)=   0.10342849D+01
 CI/CC converged in   10 iterations to DelEn=-1.27D-08 Conv= 1.00D-07 ErrA1= 1.69D-07 Conv= 1.00D-05
 Wavefunction amplitudes converged. E(Corr)=     -76.265661551    
 Largest amplitude= 3.53D-02
 IPart=  4 IA=    3   10.95% done.
 IPart=  2 IA=    5   21.27% done.
 IPart=  3 IA=    7   30.95% done.
 IPart=  3 IA=    9   40.00% done.
 IPart=  4 IA=   12   52.38% done.
 IPart=  1 IA=   15   63.33% done.
 IPart=  2 IA=   18   72.86% done.
 IPart=  1 IA=   21   80.95% done.
 IPart=  2 IA=   26   91.27% done.
 Time for triples=        0.54 seconds.
 T4(CCSD)= -0.59035002D-02
 T5(CCSD)=  0.42836733D-03
 CCSD(T)= -0.76271136684D+02
 Discarding MO integrals.
 Leave Link  913 at Wed Feb  8 14:50:55 2023, MaxMem=   754974720 cpu:              25.2 elap:              12.6
 (Enter /opt/cluster/programs/g16-c.01/g16/l601.exe)
 Copying SCF densities to generalized density rwf, IOpCl= 0 IROHF=0.

 **********************************************************************

            Population analysis using the SCF Density.

 **********************************************************************

 Orbital symmetries:
       Occupied  (A') (A') (A') (A') (A")
       Virtual   (A') (A') (A') (A") (A') (A') (A') (A') (A') (A")
                 (A") (A') (A') (A') (A') (A') (A") (A') (A") (A')
                 (A') (A") (A') (A") (A') (A") (A') (A') (A') (A')
                 (A') (A") (A') (A") (A') (A')
 The electronic state is 1-A'.
 Alpha  occ. eigenvalues --  -20.58513  -1.34955  -0.68942  -0.59604  -0.50972
 Alpha virt. eigenvalues --    0.03419   0.05851   0.17337   0.19882   0.22107
 Alpha virt. eigenvalues --    0.23480   0.27860   0.34110   0.38527   0.38822
 Alpha virt. eigenvalues --    0.41868   0.54322   0.63628   0.65931   0.78243
 Alpha virt. eigenvalues --    0.94513   1.11054   1.12435   1.14570   1.27014
 Alpha virt. eigenvalues --    1.44387   1.46521   1.58725   1.97845   2.00500
 Alpha virt. eigenvalues --    2.11575   2.25559   2.42907   2.59587   2.69117
 Alpha virt. eigenvalues --    3.02599   3.67479   3.68973   3.69550   3.96004
 Alpha virt. eigenvalues --    4.26824
          Condensed to atoms (all electrons):
               1          2          3
     1  O    7.699925   0.313376   0.329600
     2  H    0.313376   0.506974  -0.017798
     3  H    0.329600  -0.017798   0.542746
 Mulliken charges:
               1
     1  O   -0.342900
     2  H    0.197448
     3  H    0.145452
 Sum of Mulliken charges =   0.00000
 Mulliken charges with hydrogens summed into heavy atoms:
               1
     1  O    0.000000
 Electronic spatial extent (au):  <R**2>=             19.8700
 Charge=              0.0000 electrons
 Dipole moment (field-independent basis, Debye):
    X=             -0.0279    Y=             -2.1483    Z=              0.0000  Tot=              2.1485
 Quadrupole moment (field-independent basis, Debye-Ang):
   XX=             -4.5926   YY=             -6.0155   ZZ=             -7.6366
   XY=             -0.1145   XZ=              0.0000   YZ=             -0.0000
 Traceless Quadrupole moment (field-independent basis, Debye-Ang):
   XX=              1.4890   YY=              0.0661   ZZ=             -1.5551
   XY=             -0.1145   XZ=              0.0000   YZ=             -0.0000
 Octapole moment (field-independent basis, Debye-Ang**2):
  XXX=             -0.0805  YYY=             -1.3449  ZZZ=              0.0000  XYY=              0.0934
  XXY=             -1.4208  XXZ=              0.0000  XZZ=             -0.0313  YZZ=             -0.2923
  YYZ=              0.0000  XYZ=             -0.0000
 Hexadecapole moment (field-independent basis, Debye-Ang**3):
 XXXX=             -6.4516 YYYY=             -7.5476 ZZZZ=             -6.8464 XXXY=              0.0250
 XXXZ=             -0.0000 YYYX=             -0.0090 YYYZ=              0.0000 ZZZX=             -0.0000
 ZZZY=              0.0000 XXYY=             -1.8705 XXZZ=             -2.4845 YYZZ=             -2.4781
 XXYZ=             -0.0000 YYXZ=              0.0000 ZZXY=              0.0366
 N-N= 8.970528622986D+00 E-N=-1.983941823268D+02  KE= 7.584140749763D+01
 Symmetry A'   KE= 7.138462407353D+01
 Symmetry A"   KE= 4.456783424096D+00
 Leave Link  601 at Wed Feb  8 14:50:55 2023, MaxMem=   754974720 cpu:               0.2 elap:               0.1
 (Enter /opt/cluster/programs/g16-c.01/g16/l9999.exe)
 Unable to Open any file for archive entry.
 1\1\GINC-NODE62\SP\RCCSD(T)-FC\Aug-CC-pVDZ\H2O1\BOITTIER\08-Feb-2023\0
 \\#P CCSD(T)/aug-cc-pVDZ scf(maxcycle=200)\\Gaussian input\\0,1\O,0,0.
 ,0.11751,0.\H,0,0.7973622306,-0.5007896629,0.\H,0,-0.6690745937,-0.569
 5272538,0.\\Version=ES64L-G16RevC.01\State=1-A'\HF=-76.0357256\MP2=-76
 .2581483\MP3=-76.2623241\MP4D=-76.2665778\MP4DQ=-76.2639905\MP4SDQ=-76
 .2658726\CCSD=-76.2656616\CCSD(T)=-76.2711367\RMSD=8.960e-09\PG=CS [SG
 (H2O1)]\\@
 The archive entry for this job was punched.


 TIME GOES, YOU SAY?  AH NO!
 ALAS, TIME STAYS, WE GO.
    -- A. DOBSON (1840-1921)
 Job cpu time:       0 days  0 hours  0 minutes 34.9 seconds.
 Elapsed time:       0 days  0 hours  0 minutes 17.1 seconds.
 File lengths (MBytes):  RWF=     15 Int=      0 D2E=      0 Chk=      1 Scr=      1
 Normal termination of Gaussian 16 at Wed Feb  8 14:50:59 2023.
