 Entering Gaussian System, Link 0=/opt/cluster/programs/g16-c.01/g16/g16
 Input=/scratch/boittier/jobs/tmp.7261850/gaussian_172_water_ccsdt_atz.com
 Output=/scratch/boittier/jobs/tmp.7261850/gaussian_172_water_ccsdt_atz.out
 Initial command:
 /opt/cluster/programs/g16-c.01/g16/l1.exe "/scratch/boittier/jobs/tmp.7261850/Gau-103275.inp" -scrdir="/scratch/boittier/jobs/tmp.7261850/"
 Entering Link 1 = /opt/cluster/programs/g16-c.01/g16/l1.exe PID=    103276.
  
 Copyright (c) 1988-2019, Gaussian, Inc.  All Rights Reserved.
  
 This is part of the Gaussian(R) 16 program.  It is based on
 the Gaussian(R) 09 system (copyright 2009, Gaussian, Inc.),
 the Gaussian(R) 03 system (copyright 2003, Gaussian, Inc.),
 the Gaussian(R) 98 system (copyright 1998, Gaussian, Inc.),
 the Gaussian(R) 94 system (copyright 1995, Gaussian, Inc.),
 the Gaussian 92(TM) system (copyright 1992, Gaussian, Inc.),
 the Gaussian 90(TM) system (copyright 1990, Gaussian, Inc.),
 the Gaussian 88(TM) system (copyright 1988, Gaussian, Inc.),
 the Gaussian 86(TM) system (copyright 1986, Carnegie Mellon
 University), and the Gaussian 82(TM) system (copyright 1983,
 Carnegie Mellon University). Gaussian is a federally registered
 trademark of Gaussian, Inc.
  
 This software contains proprietary and confidential information,
 including trade secrets, belonging to Gaussian, Inc.
  
 This software is provided under written license and may be
 used, copied, transmitted, or stored only in accord with that
 written license.
  
 The following legend is applicable only to US Government
 contracts under FAR:
  
                    RESTRICTED RIGHTS LEGEND
  
 Use, reproduction and disclosure by the US Government is
 subject to restrictions as set forth in subparagraphs (a)
 and (c) of the Commercial Computer Software - Restricted
 Rights clause in FAR 52.227-19.
  
 Gaussian, Inc.
 340 Quinnipiac St., Bldg. 40, Wallingford CT 06492
  
  
 ---------------------------------------------------------------
 Warning -- This program may not be used in any manner that
 competes with the business of Gaussian, Inc. or will provide
 assistance to any competitor of Gaussian, Inc.  The licensee
 of this program is prohibited from giving any competitor of
 Gaussian, Inc. access to this program.  By using this program,
 the user acknowledges that Gaussian, Inc. is engaged in the
 business of creating and licensing software in the field of
 computational chemistry and represents and warrants to the
 licensee that it is not a competitor of Gaussian, Inc. and that
 it will not use this program in any manner prohibited above.
 ---------------------------------------------------------------
  

 Cite this work as:
 Gaussian 16, Revision C.01,
 M. J. Frisch, G. W. Trucks, H. B. Schlegel, G. E. Scuseria, 
 M. A. Robb, J. R. Cheeseman, G. Scalmani, V. Barone, 
 G. A. Petersson, H. Nakatsuji, X. Li, M. Caricato, A. V. Marenich, 
 J. Bloino, B. G. Janesko, R. Gomperts, B. Mennucci, H. P. Hratchian, 
 J. V. Ortiz, A. F. Izmaylov, J. L. Sonnenberg, D. Williams-Young, 
 F. Ding, F. Lipparini, F. Egidi, J. Goings, B. Peng, A. Petrone, 
 T. Henderson, D. Ranasinghe, V. G. Zakrzewski, J. Gao, N. Rega, 
 G. Zheng, W. Liang, M. Hada, M. Ehara, K. Toyota, R. Fukuda, 
 J. Hasegawa, M. Ishida, T. Nakajima, Y. Honda, O. Kitao, H. Nakai, 
 T. Vreven, K. Throssell, J. A. Montgomery, Jr., J. E. Peralta, 
 F. Ogliaro, M. J. Bearpark, J. J. Heyd, E. N. Brothers, K. N. Kudin, 
 V. N. Staroverov, T. A. Keith, R. Kobayashi, J. Normand, 
 K. Raghavachari, A. P. Rendell, J. C. Burant, S. S. Iyengar, 
 J. Tomasi, M. Cossi, J. M. Millam, M. Klene, C. Adamo, R. Cammi, 
 J. W. Ochterski, R. L. Martin, K. Morokuma, O. Farkas, 
 J. B. Foresman, and D. J. Fox, Gaussian, Inc., Wallingford CT, 2019.
 
 ******************************************
 Gaussian 16:  ES64L-G16RevC.01  3-Jul-2019
                 8-Feb-2023 
 ******************************************
 %nproc=4
 Will use up to    4 processors via shared memory.
 %mem=5760MB
 %chk=gaussian_172_water_ccsdt_atz.chk
 ----------------------------------------
 #P CCSD(T)/aug-cc-pVTZ scf(maxcycle=200)
 ----------------------------------------
 1/38=1,172=1/1;
 2/12=2,17=6,18=5,40=1/2;
 3/5=16,6=1,7=10,11=9,25=1,30=1/1,2,3;
 4//1;
 5/5=2,7=200,38=5/2;
 8/6=4,9=120000,10=1/1,4;
 9/5=7,14=2/13;
 6/7=2,8=2,9=2,10=2/1;
 99/5=1,9=1/99;
 Leave Link    1 at Wed Feb  8 13:57:46 2023, MaxMem=   754974720 cpu:               0.1 elap:               0.0
 (Enter /opt/cluster/programs/g16-c.01/g16/l101.exe)
 --------------
 Gaussian input
 --------------
 Symbolic Z-matrix:
 Charge =  0 Multiplicity = 1
 O                     0.        0.11751   0. 
 H                     0.79736  -0.50079   0. 
 H                    -0.83887  -0.44319   0. 
 
 ITRead=  0  0  0
 MicOpt= -1 -1 -1
 NAtoms=      3 NQM=        3 NQMF=       0 NMMI=      0 NMMIF=      0
                NMic=       0 NMicF=      0.
                    Isotopes and Nuclear Properties:
 (Nuclear quadrupole moments (NQMom) in fm**2, nuclear magnetic moments (NMagM)
  in nuclear magnetons)

  Atom         1           2           3
 IAtWgt=          16           1           1
 AtmWgt=  15.9949146   1.0078250   1.0078250
 NucSpn=           0           1           1
 AtZEff=  -0.0000000  -0.0000000  -0.0000000
 NQMom=    0.0000000   0.0000000   0.0000000
 NMagM=    0.0000000   2.7928460   2.7928460
 AtZNuc=   8.0000000   1.0000000   1.0000000
 Leave Link  101 at Wed Feb  8 13:57:46 2023, MaxMem=   754974720 cpu:               0.4 elap:               0.2
 (Enter /opt/cluster/programs/g16-c.01/g16/l202.exe)
                          Input orientation:                          
 ---------------------------------------------------------------------
 Center     Atomic      Atomic             Coordinates (Angstroms)
 Number     Number       Type             X           Y           Z
 ---------------------------------------------------------------------
      1          8           0        0.000000    0.117510    0.000000
      2          1           0        0.797362   -0.500790    0.000000
      3          1           0       -0.838866   -0.443190    0.000000
 ---------------------------------------------------------------------
                    Distance matrix (angstroms):
                    1          2          3
     1  O    0.000000
     2  H    1.009000   0.000000
     3  H    1.009000   1.637242   0.000000
 Stoichiometry    H2O
 Framework group  C2V[C2(O),SGV(H2)]
 Deg. of freedom     2
 Full point group                 C2V     NOp   4
 Largest Abelian subgroup         C2V     NOp   4
 Largest concise Abelian subgroup C2      NOp   2
                         Standard orientation:                         
 ---------------------------------------------------------------------
 Center     Atomic      Atomic             Coordinates (Angstroms)
 Number     Number       Type             X           Y           Z
 ---------------------------------------------------------------------
      1          8           0        0.000000   -0.000000    0.117973
      2          1           0       -0.000000    0.818621   -0.471892
      3          1           0       -0.000000   -0.818621   -0.471892
 ---------------------------------------------------------------------
 Rotational constants (GHZ):         811.4130231         374.1419960         256.0688312
 Leave Link  202 at Wed Feb  8 13:57:46 2023, MaxMem=   754974720 cpu:               0.1 elap:               0.0
 (Enter /opt/cluster/programs/g16-c.01/g16/l301.exe)
 Standard basis: Aug-CC-pVTZ (5D, 7F)
 Ernie: Thresh=  0.10000D-02 Tol=  0.10000D-05 Strict=F.
 Ernie:  3 primitive shells out of 52 were deleted.
 There are    42 symmetry adapted cartesian basis functions of A1  symmetry.
 There are    12 symmetry adapted cartesian basis functions of A2  symmetry.
 There are    20 symmetry adapted cartesian basis functions of B1  symmetry.
 There are    31 symmetry adapted cartesian basis functions of B2  symmetry.
 There are    35 symmetry adapted basis functions of A1  symmetry.
 There are    12 symmetry adapted basis functions of A2  symmetry.
 There are    18 symmetry adapted basis functions of B1  symmetry.
 There are    27 symmetry adapted basis functions of B2  symmetry.
    92 basis functions,   126 primitive gaussians,   105 cartesian basis functions
     5 alpha electrons        5 beta electrons
       nuclear repulsion energy         8.7145261926 Hartrees.
 IExCor=    0 DFT=F Ex=HF Corr=None ExCW=0 ScaHFX=  1.000000
 ScaDFX=  1.000000  1.000000  1.000000  1.000000 ScalE2=  1.000000  1.000000
 IRadAn=      5 IRanWt=     -1 IRanGd=            0 ICorTp=0 IEmpDi=  4
 NAtoms=    3 NActive=    3 NUniq=    2 SFac= 2.25D+00 NAtFMM=   60 NAOKFM=F Big=F
 Integral buffers will be    131072 words long.
 Raffenetti 1 integral format.
 Two-electron integral symmetry is turned on.
 Leave Link  301 at Wed Feb  8 13:57:46 2023, MaxMem=   754974720 cpu:               0.1 elap:               0.1
 (Enter /opt/cluster/programs/g16-c.01/g16/l302.exe)
 NPDir=0 NMtPBC=     1 NCelOv=     1 NCel=       1 NClECP=     1 NCelD=      1
         NCelK=      1 NCelE2=     1 NClLst=     1 CellRange=     0.0.
 One-electron integrals computed using PRISM.
 One-electron integral symmetry used in STVInt
 NBasis=    92 RedAO= T EigKep=  4.20D-04  NBF=    35    12    18    27
 NBsUse=    92 1.00D-06 EigRej= -1.00D+00 NBFU=    35    12    18    27
 Leave Link  302 at Wed Feb  8 13:57:48 2023, MaxMem=   754974720 cpu:               6.0 elap:               2.0
 (Enter /opt/cluster/programs/g16-c.01/g16/l303.exe)
 DipDrv:  MaxL=1.
 Leave Link  303 at Wed Feb  8 13:57:48 2023, MaxMem=   754974720 cpu:               0.5 elap:               0.3
 (Enter /opt/cluster/programs/g16-c.01/g16/l401.exe)
 ExpMin= 2.53D-02 ExpMax= 1.53D+04 ExpMxC= 5.22D+02 IAcc=3 IRadAn=         5 AccDes= 0.00D+00
 Harris functional with IExCor=  205 and IRadAn=       5 diagonalized for initial guess.
 HarFok:  IExCor=  205 AccDes= 0.00D+00 IRadAn=         5 IDoV= 1 UseB2=F ITyADJ=14
 ICtDFT=  3500011 ScaDFX=  1.000000  1.000000  1.000000  1.000000
 FoFCou: FMM=F IPFlag=           0 FMFlag=      100000 FMFlg1=           0
         NFxFlg=           0 DoJE=T BraDBF=F KetDBF=T FulRan=T
         wScrn=  0.000000 ICntrl=       500 IOpCl=  0 I1Cent=   200000004 NGrid=           0
         NMat0=    1 NMatS0=      1 NMatT0=    0 NMatD0=    1 NMtDS0=    0 NMtDT0=    0
 Petite list used in FoFCou.
 Harris En= -76.1466025701928    
 JPrj=0 DoOrth=F DoCkMO=F.
 Initial guess orbital symmetries:
       Occupied  (A1) (A1) (B2) (A1) (B1)
       Virtual   (A1) (B2) (A1) (B1) (A1) (B2) (B2) (A1) (A2) (A1)
                 (B1) (A1) (B2) (B2) (B2) (A1) (A1) (B1) (A2) (A1)
                 (B1) (A1) (B2) (B1) (A2) (B2) (A1) (B2) (A1) (B1)
                 (B2) (A1) (A2) (B2) (A2) (B1) (A1) (B2) (A1) (B2)
                 (A1) (B1) (A2) (A1) (A1) (B1) (B2) (A1) (A1) (B1)
                 (B2) (A2) (B2) (B2) (A1) (B1) (A2) (A1) (B2) (B1)
                 (B2) (B1) (A2) (A1) (A1) (B2) (A2) (B2) (A1) (B2)
                 (B1) (A1) (A1) (B2) (B1) (A1) (B1) (B1) (A2) (A1)
                 (B2) (A2) (A1) (B2) (A1) (B2) (A1)
 The electronic state of the initial guess is 1-A1.
 Leave Link  401 at Wed Feb  8 13:57:50 2023, MaxMem=   754974720 cpu:               3.9 elap:               2.0
 (Enter /opt/cluster/programs/g16-c.01/g16/l502.exe)
 Keep R1 ints in memory in symmetry-blocked form, NReq=11496777.
 FoFCou: FMM=F IPFlag=           0 FMFlag=           0 FMFlg1=           0
         NFxFlg=           0 DoJE=F BraDBF=F KetDBF=F FulRan=T
         wScrn=  0.000000 ICntrl=       600 IOpCl=  0 I1Cent=           0 NGrid=           0
         NMat0=    1 NMatS0=   4278 NMatT0=    0 NMatD0=    1 NMtDS0=    0 NMtDT0=    0
 Petite list used in FoFCou.
 Closed shell SCF:
 Using DIIS extrapolation, IDIIS=  1040.
 NGot=   754974720 LenX=   752607631 LenY=   752596165
 Requested convergence on RMS density matrix=1.00D-08 within 200 cycles.
 Requested convergence on MAX density matrix=1.00D-06.
 Requested convergence on             energy=1.00D-06.
 No special actions if energy rises.

 Cycle   1  Pass 1  IDiag  1:
 E= -75.9664334052705    
 DIIS: error= 5.69D-02 at cycle   1 NSaved=   1.
 NSaved= 1 IEnMin= 1 EnMin= -75.9664334052705     IErMin= 1 ErrMin= 5.69D-02
 ErrMax= 5.69D-02  0.00D+00 EMaxC= 1.00D-01 BMatC= 1.94D-01 BMatP= 1.94D-01
 IDIUse=3 WtCom= 4.31D-01 WtEn= 5.69D-01
 Coeff-Com:  0.100D+01
 Coeff-En:   0.100D+01
 Coeff:      0.100D+01
 Gap=     0.453 Goal=   None    Shift=    0.000
 GapD=    0.453 DampG=2.000 DampE=0.500 DampFc=1.0000 IDamp=-1.
 RMSDP=2.11D-03 MaxDP=4.68D-02              OVMax= 1.26D-01

 Cycle   2  Pass 1  IDiag  1:
 E= -76.0135989495464     Delta-E=       -0.047165544276 Rises=F Damp=F
 DIIS: error= 4.05D-02 at cycle   2 NSaved=   2.
 NSaved= 2 IEnMin= 2 EnMin= -76.0135989495464     IErMin= 2 ErrMin= 4.05D-02
 ErrMax= 4.05D-02  0.00D+00 EMaxC= 1.00D-01 BMatC= 6.05D-02 BMatP= 1.94D-01
 IDIUse=3 WtCom= 5.95D-01 WtEn= 4.05D-01
 Coeff-Com:  0.331D+00 0.669D+00
 Coeff-En:   0.234D+00 0.766D+00
 Coeff:      0.291D+00 0.709D+00
 Gap=     0.560 Goal=   None    Shift=    0.000
 RMSDP=1.31D-03 MaxDP=3.39D-02 DE=-4.72D-02 OVMax= 6.65D-02

 Cycle   3  Pass 1  IDiag  1:
 E= -76.0501312111773     Delta-E=       -0.036532261631 Rises=F Damp=F
 DIIS: error= 8.10D-03 at cycle   3 NSaved=   3.
 NSaved= 3 IEnMin= 3 EnMin= -76.0501312111773     IErMin= 3 ErrMin= 8.10D-03
 ErrMax= 8.10D-03  0.00D+00 EMaxC= 1.00D-01 BMatC= 2.86D-03 BMatP= 6.05D-02
 IDIUse=3 WtCom= 9.19D-01 WtEn= 8.10D-02
 Coeff-Com: -0.319D-01 0.147D+00 0.885D+00
 Coeff-En:   0.000D+00 0.000D+00 0.100D+01
 Coeff:     -0.293D-01 0.135D+00 0.894D+00
 Gap=     0.531 Goal=   None    Shift=    0.000
 RMSDP=2.23D-04 MaxDP=4.21D-03 DE=-3.65D-02 OVMax= 1.35D-02

 Cycle   4  Pass 1  IDiag  1:
 E= -76.0519756334917     Delta-E=       -0.001844422314 Rises=F Damp=F
 DIIS: error= 7.94D-04 at cycle   4 NSaved=   4.
 NSaved= 4 IEnMin= 4 EnMin= -76.0519756334917     IErMin= 4 ErrMin= 7.94D-04
 ErrMax= 7.94D-04  0.00D+00 EMaxC= 1.00D-01 BMatC= 1.78D-05 BMatP= 2.86D-03
 IDIUse=3 WtCom= 9.92D-01 WtEn= 7.94D-03
 Coeff-Com:  0.705D-02-0.564D-01-0.246D+00 0.130D+01
 Coeff-En:   0.000D+00 0.000D+00 0.000D+00 0.100D+01
 Coeff:      0.700D-02-0.559D-01-0.244D+00 0.129D+01
 Gap=     0.533 Goal=   None    Shift=    0.000
 RMSDP=4.40D-05 MaxDP=7.97D-04 DE=-1.84D-03 OVMax= 2.55D-03

 Cycle   5  Pass 1  IDiag  1:
 E= -76.0520076809931     Delta-E=       -0.000032047501 Rises=F Damp=F
 DIIS: error= 2.29D-04 at cycle   5 NSaved=   5.
 NSaved= 5 IEnMin= 5 EnMin= -76.0520076809931     IErMin= 5 ErrMin= 2.29D-04
 ErrMax= 2.29D-04  0.00D+00 EMaxC= 1.00D-01 BMatC= 9.61D-07 BMatP= 1.78D-05
 IDIUse=3 WtCom= 9.98D-01 WtEn= 2.29D-03
 Coeff-Com:  0.723D-03-0.331D-03-0.606D-02-0.248D+00 0.125D+01
 Coeff-En:   0.000D+00 0.000D+00 0.000D+00 0.000D+00 0.100D+01
 Coeff:      0.722D-03-0.330D-03-0.605D-02-0.247D+00 0.125D+01
 Gap=     0.534 Goal=   None    Shift=    0.000
 RMSDP=1.37D-05 MaxDP=2.93D-04 DE=-3.20D-05 OVMax= 8.89D-04

 Cycle   6  Pass 1  IDiag  1:
 E= -76.0520102066590     Delta-E=       -0.000002525666 Rises=F Damp=F
 DIIS: error= 3.84D-05 at cycle   6 NSaved=   6.
 NSaved= 6 IEnMin= 6 EnMin= -76.0520102066590     IErMin= 6 ErrMin= 3.84D-05
 ErrMax= 3.84D-05  0.00D+00 EMaxC= 1.00D-01 BMatC= 3.15D-08 BMatP= 9.61D-07
 IDIUse=1 WtCom= 1.00D+00 WtEn= 0.00D+00
 Coeff-Com: -0.382D-03 0.197D-02 0.899D-02 0.740D-02-0.319D+00 0.130D+01
 Coeff:     -0.382D-03 0.197D-02 0.899D-02 0.740D-02-0.319D+00 0.130D+01
 Gap=     0.534 Goal=   None    Shift=    0.000
 RMSDP=3.01D-06 MaxDP=7.32D-05 DE=-2.53D-06 OVMax= 2.01D-04

 Cycle   7  Pass 1  IDiag  1:
 E= -76.0520103081736     Delta-E=       -0.000000101515 Rises=F Damp=F
 DIIS: error= 6.45D-06 at cycle   7 NSaved=   7.
 NSaved= 7 IEnMin= 7 EnMin= -76.0520103081736     IErMin= 7 ErrMin= 6.45D-06
 ErrMax= 6.45D-06  0.00D+00 EMaxC= 1.00D-01 BMatC= 1.56D-09 BMatP= 3.15D-08
 IDIUse=1 WtCom= 1.00D+00 WtEn= 0.00D+00
 Coeff-Com:  0.419D-04-0.417D-03-0.192D-02 0.155D-01-0.958D-02-0.218D+00
 Coeff-Com:  0.121D+01
 Coeff:      0.419D-04-0.417D-03-0.192D-02 0.155D-01-0.958D-02-0.218D+00
 Coeff:      0.121D+01
 Gap=     0.534 Goal=   None    Shift=    0.000
 RMSDP=4.28D-07 MaxDP=1.10D-05 DE=-1.02D-07 OVMax= 3.84D-05

 Cycle   8  Pass 1  IDiag  1:
 E= -76.0520103116479     Delta-E=       -0.000000003474 Rises=F Damp=F
 DIIS: error= 1.74D-06 at cycle   8 NSaved=   8.
 NSaved= 8 IEnMin= 8 EnMin= -76.0520103116479     IErMin= 8 ErrMin= 1.74D-06
 ErrMax= 1.74D-06  0.00D+00 EMaxC= 1.00D-01 BMatC= 8.82D-11 BMatP= 1.56D-09
 IDIUse=1 WtCom= 1.00D+00 WtEn= 0.00D+00
 Coeff-Com:  0.812D-05 0.157D-04 0.155D-03-0.541D-02 0.197D-01 0.677D-03
 Coeff-Com: -0.399D+00 0.138D+01
 Coeff:      0.812D-05 0.157D-04 0.155D-03-0.541D-02 0.197D-01 0.677D-03
 Coeff:     -0.399D+00 0.138D+01
 Gap=     0.534 Goal=   None    Shift=    0.000
 RMSDP=1.42D-07 MaxDP=3.19D-06 DE=-3.47D-09 OVMax= 9.63D-06

 Cycle   9  Pass 1  IDiag  1:
 E= -76.0520103118755     Delta-E=       -0.000000000228 Rises=F Damp=F
 DIIS: error= 2.48D-07 at cycle   9 NSaved=   9.
 NSaved= 9 IEnMin= 9 EnMin= -76.0520103118755     IErMin= 9 ErrMin= 2.48D-07
 ErrMax= 2.48D-07  0.00D+00 EMaxC= 1.00D-01 BMatC= 1.55D-12 BMatP= 8.82D-11
 IDIUse=1 WtCom= 1.00D+00 WtEn= 0.00D+00
 Coeff-Com: -0.257D-05 0.249D-05-0.181D-04 0.110D-02-0.417D-02 0.103D-02
 Coeff-Com:  0.952D-01-0.417D+00 0.132D+01
 Coeff:     -0.257D-05 0.249D-05-0.181D-04 0.110D-02-0.417D-02 0.103D-02
 Coeff:      0.952D-01-0.417D+00 0.132D+01
 Gap=     0.534 Goal=   None    Shift=    0.000
 RMSDP=2.45D-08 MaxDP=4.46D-07 DE=-2.28D-10 OVMax= 1.16D-06

 Cycle  10  Pass 1  IDiag  1:
 E= -76.0520103118794     Delta-E=       -0.000000000004 Rises=F Damp=F
 DIIS: error= 5.10D-08 at cycle  10 NSaved=  10.
 NSaved=10 IEnMin=10 EnMin= -76.0520103118794     IErMin=10 ErrMin= 5.10D-08
 ErrMax= 5.10D-08  0.00D+00 EMaxC= 1.00D-01 BMatC= 6.25D-14 BMatP= 1.55D-12
 IDIUse=1 WtCom= 1.00D+00 WtEn= 0.00D+00
 Coeff-Com:  0.753D-06-0.151D-05 0.215D-05-0.268D-03 0.108D-02-0.825D-03
 Coeff-Com: -0.216D-01 0.110D+00-0.509D+00 0.142D+01
 Coeff:      0.753D-06-0.151D-05 0.215D-05-0.268D-03 0.108D-02-0.825D-03
 Coeff:     -0.216D-01 0.110D+00-0.509D+00 0.142D+01
 Gap=     0.534 Goal=   None    Shift=    0.000
 RMSDP=6.13D-09 MaxDP=1.63D-07 DE=-3.94D-12 OVMax= 3.38D-07

 SCF Done:  E(RHF) =  -76.0520103119     A.U. after   10 cycles
            NFock= 10  Conv=0.61D-08     -V/T= 2.0038
 KE= 7.576430145673D+01 PE=-1.979578157159D+02 EE= 3.742697775471D+01
 Leave Link  502 at Wed Feb  8 13:58:06 2023, MaxMem=   754974720 cpu:              30.7 elap:              15.4
 (Enter /opt/cluster/programs/g16-c.01/g16/l801.exe)
 Windowed orbitals will be sorted by symmetry type.
 ExpMin= 2.53D-02 ExpMax= 1.53D+04 ExpMxC= 5.22D+02 IAcc=3 IRadAn=         5 AccDes= 0.00D+00
 HarFok:  IExCor=  205 AccDes= 0.00D+00 IRadAn=         5 IDoV=-2 UseB2=F ITyADJ=14
 ICtDFT= 12500011 ScaDFX=  1.000000  1.000000  1.000000  1.000000
 Largest valence mixing into a core orbital is  1.13D-04
 Largest core mixing into a valence orbital is  1.86D-05
 Range of M.O.s used for correlation:     2    92
 NBasis=    92 NAE=     5 NBE=     5 NFC=     1 NFV=     0
 NROrb=     91 NOA=     4 NOB=     4 NVA=    87 NVB=    87

 **** Warning!!: The largest alpha MO coefficient is  0.15187151D+02

 Leave Link  801 at Wed Feb  8 13:58:06 2023, MaxMem=   754974720 cpu:               0.7 elap:               0.2
 (Enter /opt/cluster/programs/g16-c.01/g16/l804.exe)
 Closed-shell transformation, MDV=   754974720 ITran=4 ISComp=2.
 Unit  1 TFree=        277513 TCopy=        242092.
 Semi-Direct transformation.
 ModeAB=           4 MOrb=             4 LenV=     754589018
 LASXX=       368428 LTotXX=      368428 LenRXX=      751146
 LTotAB=      382718 MaxLAS=     1379560 LenRXY=           0
 NonZer=     1119574 LenScr=     2357760 LnRSAI=     1379560
 LnScr1=     2758656 LExtra=           0 Total=      7247122
 MaxDsk=          -1 SrtSym=           T ITran=            4
 DoSDTr:  NPSUse=  4
 JobTyp=0 Pass  1:  I=   1 to   4.
 (rs|ai) integrals will be sorted in core.
 Complete sort for first half transformation.
 First half transformation complete.
 Complete sort for second half transformation.
 Second half transformation complete.
 Spin components of T(2) and E(2):
     alpha-alpha T2 =       0.8540117752D-02 E2=     -0.3300868502D-01
     alpha-beta  T2 =       0.4997350243D-01 E2=     -0.2062482879D+00
     beta-beta   T2 =       0.8540117752D-02 E2=     -0.3300868502D-01
 ANorm=    0.1032982932D+01
 E2 =    -0.2722656579D+00 EUMP2 =    -0.76324275969796D+02
 Leave Link  804 at Wed Feb  8 13:58:08 2023, MaxMem=   754974720 cpu:               5.9 elap:               2.2
 (Enter /opt/cluster/programs/g16-c.01/g16/l913.exe)
 CIDS:  MDV=   754974720.
 Frozen-core window:  NFC=   1 NFV=   0.
 IFCWin=0 IBDFC=1 NFBD=     0     0 NFCmp=     0     0 NFFFC=     0     0
 Using DD3R+UMP44R for 1st iteration.
 Using DD4RQ for 2nd and later iterations.
 Keep R2 and R3 ints in memory in symmetry-blocked form, NReq=11500115.
 FoFCou: FMM=F IPFlag=           0 FMFlag=           0 FMFlg1=           0
         NFxFlg=           0 DoJE=F BraDBF=F KetDBF=F FulRan=T
         wScrn=  0.000000 ICntrl=       600 IOpCl=  0 I1Cent=           0 NGrid=           0
         NMat0=    1 NMatS0=   4278 NMatT0=    0 NMatD0=    1 NMtDS0=    0 NMtDT0=    0
 Petite list used in FoFCou.
 CIDS: In Core Option IDoMem=           1.
 CCSD(T)
 =======
 Iterations=  50 Convergence= 0.100D-06
 Produce multiple copies of IABC intergrals
 Iteration Nr.   1
 **********************
 DD1Dir will call FoFMem   1 times, MxPair=        20
 NAB=    10 NAA=     0 NBB=     0.
 MP4(R+Q)=  0.42555284D-02
 Maximum subspace dimension=  5
 A-vector RMS=  3.0721092D-03 Max=  1.3529846D-02 conv= 1.00D-05.
 RLE energy=       -0.2697140240
 E3=       -0.17247838D-02        EUMP3=      -0.76326000754D+02
 E4(DQ)=   -0.95003921D-03        UMP4(DQ)=   -0.76326950793D+02
 E4(SDQ)=  -0.30825267D-02        UMP4(SDQ)=  -0.76329083280D+02
 VARIATIONAL ENERGIES WITH THE FIRST-ORDER WAVEFUNCTION:
 DE(Corr)= -0.26968989     E(Corr)=     -76.321700203    
 NORM(A)=   0.10326201D+01
 Iteration Nr.   2
 **********************
 DD1Dir will call FoFMem   1 times, MxPair=        20
 NAB=    10 NAA=     0 NBB=     0.
 A-vector RMS=  3.4560692D-04 Max=  2.4427501D-03 conv= 1.00D-05.
 RLE energy=       -0.2761143964
 DE(Corr)= -0.27569010     E(CORR)=     -76.327700407     Delta=-6.00D-03
 NORM(A)=   0.10350745D+01
 Iteration Nr.   3
 **********************
 DD1Dir will call FoFMem   1 times, MxPair=        20
 NAB=    10 NAA=     0 NBB=     0.
 A-vector RMS=  4.4582320D-04 Max=  2.5387766D-03 conv= 1.00D-05.
 RLE energy=       -0.2764860413
 DE(Corr)= -0.27604129     E(CORR)=     -76.328051605     Delta=-3.51D-04
 NORM(A)=   0.10355949D+01
 Iteration Nr.   4
 **********************
 DD1Dir will call FoFMem   1 times, MxPair=        20
 NAB=    10 NAA=     0 NBB=     0.
 A-vector RMS=  7.3867143D-05 Max=  4.3154447D-04 conv= 1.00D-05.
 RLE energy=       -0.2765276967
 DE(Corr)= -0.27649315     E(CORR)=     -76.328503462     Delta=-4.52D-04
 NORM(A)=   0.10357325D+01
 Iteration Nr.   5
 **********************
 DD1Dir will call FoFMem   1 times, MxPair=        20
 NAB=    10 NAA=     0 NBB=     0.
 A-vector RMS=  3.5928349D-05 Max=  2.1517201D-04 conv= 1.00D-05.
 RLE energy=       -0.2765433156
 DE(Corr)= -0.27653623     E(CORR)=     -76.328546545     Delta=-4.31D-05
 NORM(A)=   0.10357613D+01
 Iteration Nr.   6
 **********************
 DD1Dir will call FoFMem   1 times, MxPair=        20
 NAB=    10 NAA=     0 NBB=     0.
 A-vector RMS=  8.7099060D-06 Max=  4.2727713D-05 conv= 1.00D-05.
 RLE energy=       -0.2765386368
 DE(Corr)= -0.27653996     E(CORR)=     -76.328550270     Delta=-3.73D-06
 NORM(A)=   0.10357637D+01
 Iteration Nr.   7
 **********************
 DD1Dir will call FoFMem   1 times, MxPair=        20
 NAB=    10 NAA=     0 NBB=     0.
 A-vector RMS=  3.4218396D-06 Max=  1.9406741D-05 conv= 1.00D-05.
 RLE energy=       -0.2765388775
 DE(Corr)= -0.27654003     E(CORR)=     -76.328550338     Delta=-6.74D-08
 NORM(A)=   0.10357645D+01
 Iteration Nr.   8
 **********************
 DD1Dir will call FoFMem   1 times, MxPair=        20
 NAB=    10 NAA=     0 NBB=     0.
 A-vector RMS=  1.2794679D-06 Max=  6.1737415D-06 conv= 1.00D-05.
 RLE energy=       -0.2765395120
 DE(Corr)= -0.27653967     E(CORR)=     -76.328549985     Delta= 3.52D-07
 NORM(A)=   0.10357649D+01
 Iteration Nr.   9
 **********************
 DD1Dir will call FoFMem   1 times, MxPair=        20
 NAB=    10 NAA=     0 NBB=     0.
 A-vector RMS=  4.1031277D-07 Max=  2.4200124D-06 conv= 1.00D-05.
 RLE energy=       -0.2765396734
 DE(Corr)= -0.27653970     E(CORR)=     -76.328550011     Delta=-2.55D-08
 NORM(A)=   0.10357652D+01
 CI/CC converged in    9 iterations to DelEn=-2.55D-08 Conv= 1.00D-07 ErrA1= 4.10D-07 Conv= 1.00D-05
 Wavefunction amplitudes converged. E(Corr)=     -76.328550011    
 Largest amplitude= 2.44D-02
 IPart=  1 IA=    6   11.23% done.
 IPart=  4 IA=   11   21.79% done.
 IPart=  2 IA=   16   31.68% done.
 IPart=  1 IA=   21   40.90% done.
 IPart=  1 IA=   27   51.08% done.
 IPart=  1 IA=   33   60.30% done.
 IPart=  4 IA=   41   71.10% done.
 IPart=  1 IA=   49   80.19% done.
 IPart=  1 IA=   61   90.62% done.
 Time for triples=        6.56 seconds.
 T4(CCSD)= -0.95015017D-02
 T5(CCSD)=  0.36402435D-03
 CCSD(T)= -0.76337687488D+02
 Discarding MO integrals.
 Leave Link  913 at Wed Feb  8 13:59:08 2023, MaxMem=   754974720 cpu:             119.7 elap:              59.9
 (Enter /opt/cluster/programs/g16-c.01/g16/l601.exe)
 Copying SCF densities to generalized density rwf, IOpCl= 0 IROHF=0.

 **********************************************************************

            Population analysis using the SCF Density.

 **********************************************************************

 Orbital symmetries:
       Occupied  (A1) (A1) (B2) (A1) (B1)
       Virtual   (A1) (B2) (A1) (B1) (A1) (B2) (B2) (A1) (A2) (B1)
                 (A1) (B2) (A1) (B2) (B2) (A1) (A1) (A2) (B1) (A1)
                 (B1) (A1) (B2) (A2) (B2) (B1) (A1) (A1) (B2) (B1)
                 (B2) (A1) (A2) (B2) (A2) (B1) (A1) (B2) (A1) (B2)
                 (A1) (B1) (A2) (A1) (A1) (B1) (B2) (A1) (A1) (B1)
                 (B2) (B2) (A2) (B2) (A1) (A2) (B1) (A1) (B2) (B1)
                 (A2) (B1) (B2) (A1) (A1) (B2) (B2) (A2) (A1) (B2)
                 (B1) (A1) (A1) (B2) (B1) (A1) (B1) (A2) (B1) (B2)
                 (A1) (A2) (A1) (B2) (A1) (B2) (A1)
 The electronic state is 1-A1.
 Alpha  occ. eigenvalues --  -20.57405  -1.32598  -0.69709  -0.56756  -0.50509
 Alpha virt. eigenvalues --    0.02895   0.04720   0.13614   0.16046   0.17206
 Alpha virt. eigenvalues --    0.18184   0.22415   0.24231   0.26337   0.30239
 Alpha virt. eigenvalues --    0.31125   0.36386   0.42669   0.45670   0.59959
 Alpha virt. eigenvalues --    0.64900   0.71008   0.72064   0.73298   0.81052
 Alpha virt. eigenvalues --    0.83865   0.90121   0.90137   0.91399   0.92611
 Alpha virt. eigenvalues --    0.93070   0.96582   1.00595   1.02915   1.07616
 Alpha virt. eigenvalues --    1.10178   1.15748   1.15898   1.27853   1.49760
 Alpha virt. eigenvalues --    1.56571   1.57617   1.74000   1.82127   1.93898
 Alpha virt. eigenvalues --    2.06179   2.25318   2.30565   2.32571   2.39871
 Alpha virt. eigenvalues --    2.40169   2.43931   2.50219   2.70799   2.71296
 Alpha virt. eigenvalues --    2.72335   2.84811   2.85391   3.55210   3.69165
 Alpha virt. eigenvalues --    3.96982   4.03319   4.15906   4.16054   4.28371
 Alpha virt. eigenvalues --    4.35945   4.36852   4.44908   4.45178   4.62647
 Alpha virt. eigenvalues --    4.67694   4.98666   5.03751   5.13691   5.22671
 Alpha virt. eigenvalues --    5.35145   5.61403   6.06273   6.55481   6.69237
 Alpha virt. eigenvalues --    6.78604   7.07971   7.17799   7.21882   7.26646
 Alpha virt. eigenvalues --    7.28156   7.36347   7.41173   7.76177   7.86621
 Alpha virt. eigenvalues --    8.50480  14.37791
          Condensed to atoms (all electrons):
               1          2          3
     1  O    7.994436   0.258638   0.258638
     2  H    0.258638   0.456206   0.029300
     3  H    0.258638   0.029300   0.456206
 Mulliken charges:
               1
     1  O   -0.511712
     2  H    0.255856
     3  H    0.255856
 Sum of Mulliken charges =   0.00000
 Mulliken charges with hydrogens summed into heavy atoms:
               1
     1  O    0.000000
 Electronic spatial extent (au):  <R**2>=             20.1678
 Charge=              0.0000 electrons
 Dipole moment (field-independent basis, Debye):
    X=             -0.0000    Y=              0.0000    Z=             -1.9552  Tot=              1.9552
 Quadrupole moment (field-independent basis, Debye-Ang):
   XX=             -7.6830   YY=             -3.9315   ZZ=             -6.4003
   XY=              0.0000   XZ=              0.0000   YZ=             -0.0000
 Traceless Quadrupole moment (field-independent basis, Debye-Ang):
   XX=             -1.6781   YY=              2.0734   ZZ=             -0.3953
   XY=              0.0000   XZ=              0.0000   YZ=             -0.0000
 Octapole moment (field-independent basis, Debye-Ang**2):
  XXX=              0.0000  YYY=              0.0000  ZZZ=             -1.0128  XYY=             -0.0000
  XXY=             -0.0000  XXZ=             -0.2141  XZZ=              0.0000  YZZ=              0.0000
  YYZ=             -1.5817  XYZ=             -0.0000
 Hexadecapole moment (field-independent basis, Debye-Ang**3):
 XXXX=             -6.9219 YYYY=             -6.1353 ZZZZ=             -7.6338 XXXY=             -0.0000
 XXXZ=             -0.0000 YYYX=              0.0000 YYYZ=             -0.0000 ZZZX=             -0.0000
 ZZZY=              0.0000 XXYY=             -2.6201 XXZZ=             -2.4755 YYZZ=             -1.9416
 XXYZ=              0.0000 YYXZ=              0.0000 ZZXY=              0.0000
 N-N= 8.714526192568D+00 E-N=-1.979578157377D+02  KE= 7.576430145673D+01
 Symmetry A1   KE= 6.785370508495D+01
 Symmetry A2   KE= 1.360775275552D-19
 Symmetry B1   KE= 4.471004062267D+00
 Symmetry B2   KE= 3.439592309517D+00
 Leave Link  601 at Wed Feb  8 13:59:08 2023, MaxMem=   754974720 cpu:               0.7 elap:               0.2
 (Enter /opt/cluster/programs/g16-c.01/g16/l9999.exe)
 Unable to Open any file for archive entry.
 1\1\GINC-NODE64\SP\RCCSD(T)-FC\Aug-CC-pVTZ\H2O1\BOITTIER\08-Feb-2023\0
 \\#P CCSD(T)/aug-cc-pVTZ scf(maxcycle=200)\\Gaussian input\\0,1\O,0,0.
 ,0.11751,0.\H,0,0.7973622306,-0.5007896629,0.\H,0,-0.8388659611,-0.443
 190365,0.\\Version=ES64L-G16RevC.01\State=1-A1\HF=-76.0520103\MP2=-76.
 324276\MP3=-76.3260008\MP4D=-76.3312063\MP4DQ=-76.3269508\MP4SDQ=-76.3
 290833\CCSD=-76.32855\CCSD(T)=-76.3376875\RMSD=6.128e-09\PG=C02V [C2(O
 1),SGV(H2)]\\@
 The archive entry for this job was punched.


 SI MONUMENTUM REQUIRIS, CIRCUMSPICE
     -- FROM SIR CHRISTOPHER WREN'S TOMBSTONE
 Job cpu time:       0 days  0 hours  2 minutes 49.4 seconds.
 Elapsed time:       0 days  0 hours  1 minutes 22.6 seconds.
 File lengths (MBytes):  RWF=     64 Int=      0 D2E=      0 Chk=      2 Scr=      1
 Normal termination of Gaussian 16 at Wed Feb  8 13:59:08 2023.
