 Entering Gaussian System, Link 0=/opt/cluster/programs/g16-c.01/g16/g16
 Input=/scratch/boittier/jobs/tmp.7261665/gaussian_2_water_ccsdt_atz.com
 Output=/scratch/boittier/jobs/tmp.7261665/gaussian_2_water_ccsdt_atz.out
 Initial command:
 /opt/cluster/programs/g16-c.01/g16/l1.exe "/scratch/boittier/jobs/tmp.7261665/Gau-44412.inp" -scrdir="/scratch/boittier/jobs/tmp.7261665/"
 Entering Link 1 = /opt/cluster/programs/g16-c.01/g16/l1.exe PID=     44413.
  
 Copyright (c) 1988-2019, Gaussian, Inc.  All Rights Reserved.
  
 This is part of the Gaussian(R) 16 program.  It is based on
 the Gaussian(R) 09 system (copyright 2009, Gaussian, Inc.),
 the Gaussian(R) 03 system (copyright 2003, Gaussian, Inc.),
 the Gaussian(R) 98 system (copyright 1998, Gaussian, Inc.),
 the Gaussian(R) 94 system (copyright 1995, Gaussian, Inc.),
 the Gaussian 92(TM) system (copyright 1992, Gaussian, Inc.),
 the Gaussian 90(TM) system (copyright 1990, Gaussian, Inc.),
 the Gaussian 88(TM) system (copyright 1988, Gaussian, Inc.),
 the Gaussian 86(TM) system (copyright 1986, Carnegie Mellon
 University), and the Gaussian 82(TM) system (copyright 1983,
 Carnegie Mellon University). Gaussian is a federally registered
 trademark of Gaussian, Inc.
  
 This software contains proprietary and confidential information,
 including trade secrets, belonging to Gaussian, Inc.
  
 This software is provided under written license and may be
 used, copied, transmitted, or stored only in accord with that
 written license.
  
 The following legend is applicable only to US Government
 contracts under FAR:
  
                    RESTRICTED RIGHTS LEGEND
  
 Use, reproduction and disclosure by the US Government is
 subject to restrictions as set forth in subparagraphs (a)
 and (c) of the Commercial Computer Software - Restricted
 Rights clause in FAR 52.227-19.
  
 Gaussian, Inc.
 340 Quinnipiac St., Bldg. 40, Wallingford CT 06492
  
  
 ---------------------------------------------------------------
 Warning -- This program may not be used in any manner that
 competes with the business of Gaussian, Inc. or will provide
 assistance to any competitor of Gaussian, Inc.  The licensee
 of this program is prohibited from giving any competitor of
 Gaussian, Inc. access to this program.  By using this program,
 the user acknowledges that Gaussian, Inc. is engaged in the
 business of creating and licensing software in the field of
 computational chemistry and represents and warrants to the
 licensee that it is not a competitor of Gaussian, Inc. and that
 it will not use this program in any manner prohibited above.
 ---------------------------------------------------------------
  

 Cite this work as:
 Gaussian 16, Revision C.01,
 M. J. Frisch, G. W. Trucks, H. B. Schlegel, G. E. Scuseria, 
 M. A. Robb, J. R. Cheeseman, G. Scalmani, V. Barone, 
 G. A. Petersson, H. Nakatsuji, X. Li, M. Caricato, A. V. Marenich, 
 J. Bloino, B. G. Janesko, R. Gomperts, B. Mennucci, H. P. Hratchian, 
 J. V. Ortiz, A. F. Izmaylov, J. L. Sonnenberg, D. Williams-Young, 
 F. Ding, F. Lipparini, F. Egidi, J. Goings, B. Peng, A. Petrone, 
 T. Henderson, D. Ranasinghe, V. G. Zakrzewski, J. Gao, N. Rega, 
 G. Zheng, W. Liang, M. Hada, M. Ehara, K. Toyota, R. Fukuda, 
 J. Hasegawa, M. Ishida, T. Nakajima, Y. Honda, O. Kitao, H. Nakai, 
 T. Vreven, K. Throssell, J. A. Montgomery, Jr., J. E. Peralta, 
 F. Ogliaro, M. J. Bearpark, J. J. Heyd, E. N. Brothers, K. N. Kudin, 
 V. N. Staroverov, T. A. Keith, R. Kobayashi, J. Normand, 
 K. Raghavachari, A. P. Rendell, J. C. Burant, S. S. Iyengar, 
 J. Tomasi, M. Cossi, J. M. Millam, M. Klene, C. Adamo, R. Cammi, 
 J. W. Ochterski, R. L. Martin, K. Morokuma, O. Farkas, 
 J. B. Foresman, and D. J. Fox, Gaussian, Inc., Wallingford CT, 2019.
 
 ******************************************
 Gaussian 16:  ES64L-G16RevC.01  3-Jul-2019
                 8-Feb-2023 
 ******************************************
 %nproc=4
 Will use up to    4 processors via shared memory.
 %mem=5760MB
 %chk=gaussian_2_water_ccsdt_atz.chk
 ----------------------------------------
 #P CCSD(T)/aug-cc-pVTZ scf(maxcycle=200)
 ----------------------------------------
 1/38=1,172=1/1;
 2/12=2,17=6,18=5,40=1/2;
 3/5=16,6=1,7=10,11=9,25=1,30=1/1,2,3;
 4//1;
 5/5=2,7=200,38=5/2;
 8/6=4,9=120000,10=1/1,4;
 9/5=7,14=2/13;
 6/7=2,8=2,9=2,10=2/1;
 99/5=1,9=1/99;
 Leave Link    1 at Wed Feb  8 13:46:37 2023, MaxMem=   754974720 cpu:               0.9 elap:               1.9
 (Enter /opt/cluster/programs/g16-c.01/g16/l101.exe)
 --------------
 Gaussian input
 --------------
 Symbolic Z-matrix:
 Charge =  0 Multiplicity = 1
 O                     0.        0.11751   0. 
 H                     0.71834  -0.43951   0. 
 H                    -0.53739  -0.61563   0. 
 
 ITRead=  0  0  0
 MicOpt= -1 -1 -1
 NAtoms=      3 NQM=        3 NQMF=       0 NMMI=      0 NMMIF=      0
                NMic=       0 NMicF=      0.
                    Isotopes and Nuclear Properties:
 (Nuclear quadrupole moments (NQMom) in fm**2, nuclear magnetic moments (NMagM)
  in nuclear magnetons)

  Atom         1           2           3
 IAtWgt=          16           1           1
 AtmWgt=  15.9949146   1.0078250   1.0078250
 NucSpn=           0           1           1
 AtZEff=  -0.0000000  -0.0000000  -0.0000000
 NQMom=    0.0000000   0.0000000   0.0000000
 NMagM=    0.0000000   2.7928460   2.7928460
 AtZNuc=   8.0000000   1.0000000   1.0000000
 Leave Link  101 at Wed Feb  8 13:46:42 2023, MaxMem=   754974720 cpu:               0.4 elap:               0.2
 (Enter /opt/cluster/programs/g16-c.01/g16/l202.exe)
                          Input orientation:                          
 ---------------------------------------------------------------------
 Center     Atomic      Atomic             Coordinates (Angstroms)
 Number     Number       Type             X           Y           Z
 ---------------------------------------------------------------------
      1          8           0        0.000000    0.117510    0.000000
      2          1           0        0.718337   -0.439511    0.000000
      3          1           0       -0.537387   -0.615631    0.000000
 ---------------------------------------------------------------------
                    Distance matrix (angstroms):
                    1          2          3
     1  O    0.000000
     2  H    0.909000   0.000000
     3  H    0.909000   1.268015   0.000000
 Stoichiometry    H2O
 Framework group  C2V[C2(O),SGV(H2)]
 Deg. of freedom     2
 Full point group                 C2V     NOp   4
 Largest Abelian subgroup         C2V     NOp   4
 Largest concise Abelian subgroup C2      NOp   2
                         Standard orientation:                         
 ---------------------------------------------------------------------
 Center     Atomic      Atomic             Coordinates (Angstroms)
 Number     Number       Type             X           Y           Z
 ---------------------------------------------------------------------
      1          8           0        0.000000   -0.000000    0.130279
      2          1           0        0.000000    0.634007   -0.521116
      3          1           0       -0.000000   -0.634007   -0.521116
 ---------------------------------------------------------------------
 Rotational constants (GHZ):         665.3626236         623.7541626         321.9434504
 Leave Link  202 at Wed Feb  8 13:46:47 2023, MaxMem=   754974720 cpu:               0.1 elap:               0.0
 (Enter /opt/cluster/programs/g16-c.01/g16/l301.exe)
 Standard basis: Aug-CC-pVTZ (5D, 7F)
 Ernie: Thresh=  0.10000D-02 Tol=  0.10000D-05 Strict=F.
 Ernie:  3 primitive shells out of 52 were deleted.
 There are    42 symmetry adapted cartesian basis functions of A1  symmetry.
 There are    12 symmetry adapted cartesian basis functions of A2  symmetry.
 There are    20 symmetry adapted cartesian basis functions of B1  symmetry.
 There are    31 symmetry adapted cartesian basis functions of B2  symmetry.
 There are    35 symmetry adapted basis functions of A1  symmetry.
 There are    12 symmetry adapted basis functions of A2  symmetry.
 There are    18 symmetry adapted basis functions of B1  symmetry.
 There are    27 symmetry adapted basis functions of B2  symmetry.
    92 basis functions,   126 primitive gaussians,   105 cartesian basis functions
     5 alpha electrons        5 beta electrons
       nuclear repulsion energy         9.7317776954 Hartrees.
 IExCor=    0 DFT=F Ex=HF Corr=None ExCW=0 ScaHFX=  1.000000
 ScaDFX=  1.000000  1.000000  1.000000  1.000000 ScalE2=  1.000000  1.000000
 IRadAn=      5 IRanWt=     -1 IRanGd=            0 ICorTp=0 IEmpDi=  4
 NAtoms=    3 NActive=    3 NUniq=    2 SFac= 2.25D+00 NAtFMM=   60 NAOKFM=F Big=F
 Integral buffers will be    131072 words long.
 Raffenetti 1 integral format.
 Two-electron integral symmetry is turned on.
 Leave Link  301 at Wed Feb  8 13:46:53 2023, MaxMem=   754974720 cpu:               0.1 elap:               0.1
 (Enter /opt/cluster/programs/g16-c.01/g16/l302.exe)
 NPDir=0 NMtPBC=     1 NCelOv=     1 NCel=       1 NClECP=     1 NCelD=      1
         NCelK=      1 NCelE2=     1 NClLst=     1 CellRange=     0.0.
 One-electron integrals computed using PRISM.
 One-electron integral symmetry used in STVInt
 NBasis=    92 RedAO= T EigKep=  2.95D-04  NBF=    35    12    18    27
 NBsUse=    92 1.00D-06 EigRej= -1.00D+00 NBFU=    35    12    18    27
 Leave Link  302 at Wed Feb  8 13:47:02 2023, MaxMem=   754974720 cpu:               4.8 elap:               2.4
 (Enter /opt/cluster/programs/g16-c.01/g16/l303.exe)
 DipDrv:  MaxL=1.
 Leave Link  303 at Wed Feb  8 13:47:09 2023, MaxMem=   754974720 cpu:               0.5 elap:               0.2
 (Enter /opt/cluster/programs/g16-c.01/g16/l401.exe)
 ExpMin= 2.53D-02 ExpMax= 1.53D+04 ExpMxC= 5.22D+02 IAcc=3 IRadAn=         5 AccDes= 0.00D+00
 Harris functional with IExCor=  205 and IRadAn=       5 diagonalized for initial guess.
 HarFok:  IExCor=  205 AccDes= 0.00D+00 IRadAn=         5 IDoV= 1 UseB2=F ITyADJ=14
 ICtDFT=  3500011 ScaDFX=  1.000000  1.000000  1.000000  1.000000
 FoFCou: FMM=F IPFlag=           0 FMFlag=      100000 FMFlg1=           0
         NFxFlg=           0 DoJE=T BraDBF=F KetDBF=T FulRan=T
         wScrn=  0.000000 ICntrl=       500 IOpCl=  0 I1Cent=   200000004 NGrid=           0
         NMat0=    1 NMatS0=      1 NMatT0=    0 NMatD0=    1 NMtDS0=    0 NMtDT0=    0
 Petite list used in FoFCou.
 Harris En= -76.1427001554932    
 JPrj=0 DoOrth=F DoCkMO=F.
 Initial guess orbital symmetries:
       Occupied  (A1) (A1) (B2) (A1) (B1)
       Virtual   (A1) (B2) (A1) (B1) (A1) (B2) (B2) (A1) (A2) (B1)
                 (A1) (A1) (B2) (B2) (B2) (A1) (A1) (B1) (A2) (B1)
                 (A1) (A1) (B2) (B1) (A1) (A2) (B2) (A1) (B2) (B1)
                 (B2) (B2) (A2) (A1) (A1) (A2) (B1) (A1) (B2) (B2)
                 (A1) (B1) (A2) (A1) (A1) (B1) (B2) (A1) (B2) (B1)
                 (B2) (A1) (A2) (A1) (B2) (B1) (B1) (A1) (A2) (A1)
                 (B1) (B2) (A2) (B2) (A1) (B2) (B2) (A1) (A2) (B1)
                 (A1) (B2) (A1) (B2) (B1) (B1) (A2) (B2) (A1) (B1)
                 (A1) (A2) (A1) (A1) (B2) (B2) (A1)
 The electronic state of the initial guess is 1-A1.
 Leave Link  401 at Wed Feb  8 13:47:18 2023, MaxMem=   754974720 cpu:               5.7 elap:               2.8
 (Enter /opt/cluster/programs/g16-c.01/g16/l502.exe)
 Keep R1 ints in memory in symmetry-blocked form, NReq=11496777.
 FoFCou: FMM=F IPFlag=           0 FMFlag=           0 FMFlg1=           0
         NFxFlg=           0 DoJE=F BraDBF=F KetDBF=F FulRan=T
         wScrn=  0.000000 ICntrl=       600 IOpCl=  0 I1Cent=           0 NGrid=           0
         NMat0=    1 NMatS0=   4278 NMatT0=    0 NMatD0=    1 NMtDS0=    0 NMtDT0=    0
 Petite list used in FoFCou.
 Closed shell SCF:
 Using DIIS extrapolation, IDIIS=  1040.
 NGot=   754974720 LenX=   752607631 LenY=   752596165
 Requested convergence on RMS density matrix=1.00D-08 within 200 cycles.
 Requested convergence on MAX density matrix=1.00D-06.
 Requested convergence on             energy=1.00D-06.
 No special actions if energy rises.

 Cycle   1  Pass 1  IDiag  1:
 E= -75.9530999388601    
 DIIS: error= 4.74D-02 at cycle   1 NSaved=   1.
 NSaved= 1 IEnMin= 1 EnMin= -75.9530999388601     IErMin= 1 ErrMin= 4.74D-02
 ErrMax= 4.74D-02  0.00D+00 EMaxC= 1.00D-01 BMatC= 2.16D-01 BMatP= 2.16D-01
 IDIUse=3 WtCom= 5.26D-01 WtEn= 4.74D-01
 Coeff-Com:  0.100D+01
 Coeff-En:   0.100D+01
 Coeff:      0.100D+01
 Gap=     0.451 Goal=   None    Shift=    0.000
 GapD=    0.451 DampG=2.000 DampE=0.500 DampFc=1.0000 IDamp=-1.
 RMSDP=2.25D-03 MaxDP=5.10D-02              OVMax= 1.25D-01

 Cycle   2  Pass 1  IDiag  1:
 E= -76.0111330705428     Delta-E=       -0.058033131683 Rises=F Damp=F
 DIIS: error= 2.92D-02 at cycle   2 NSaved=   2.
 NSaved= 2 IEnMin= 2 EnMin= -76.0111330705428     IErMin= 2 ErrMin= 2.92D-02
 ErrMax= 2.92D-02  0.00D+00 EMaxC= 1.00D-01 BMatC= 6.09D-02 BMatP= 2.16D-01
 IDIUse=3 WtCom= 7.08D-01 WtEn= 2.92D-01
 Coeff-Com:  0.320D+00 0.680D+00
 Coeff-En:   0.178D+00 0.822D+00
 Coeff:      0.279D+00 0.721D+00
 Gap=     0.573 Goal=   None    Shift=    0.000
 RMSDP=1.32D-03 MaxDP=3.58D-02 DE=-5.80D-02 OVMax= 6.39D-02

 Cycle   3  Pass 1  IDiag  1:
 E= -76.0466813321363     Delta-E=       -0.035548261594 Rises=F Damp=F
 DIIS: error= 5.70D-03 at cycle   3 NSaved=   3.
 NSaved= 3 IEnMin= 3 EnMin= -76.0466813321363     IErMin= 3 ErrMin= 5.70D-03
 ErrMax= 5.70D-03  0.00D+00 EMaxC= 1.00D-01 BMatC= 2.42D-03 BMatP= 6.09D-02
 IDIUse=3 WtCom= 9.43D-01 WtEn= 5.70D-02
 Coeff-Com: -0.295D-01 0.134D+00 0.896D+00
 Coeff-En:   0.000D+00 0.000D+00 0.100D+01
 Coeff:     -0.278D-01 0.126D+00 0.902D+00
 Gap=     0.546 Goal=   None    Shift=    0.000
 RMSDP=1.96D-04 MaxDP=3.81D-03 DE=-3.55D-02 OVMax= 1.13D-02

 Cycle   4  Pass 1  IDiag  1:
 E= -76.0481590444845     Delta-E=       -0.001477712348 Rises=F Damp=F
 DIIS: error= 4.10D-04 at cycle   4 NSaved=   4.
 NSaved= 4 IEnMin= 4 EnMin= -76.0481590444845     IErMin= 4 ErrMin= 4.10D-04
 ErrMax= 4.10D-04  0.00D+00 EMaxC= 1.00D-01 BMatC= 8.03D-06 BMatP= 2.42D-03
 IDIUse=3 WtCom= 9.96D-01 WtEn= 4.10D-03
 Coeff-Com:  0.688D-02-0.471D-01-0.260D+00 0.130D+01
 Coeff-En:   0.000D+00 0.000D+00 0.000D+00 0.100D+01
 Coeff:      0.685D-02-0.469D-01-0.259D+00 0.130D+01
 Gap=     0.547 Goal=   None    Shift=    0.000
 RMSDP=3.22D-05 MaxDP=5.93D-04 DE=-1.48D-03 OVMax= 1.88D-03

 Cycle   5  Pass 1  IDiag  1:
 E= -76.0481746909110     Delta-E=       -0.000015646427 Rises=F Damp=F
 DIIS: error= 1.25D-04 at cycle   5 NSaved=   5.
 NSaved= 5 IEnMin= 5 EnMin= -76.0481746909110     IErMin= 5 ErrMin= 1.25D-04
 ErrMax= 1.25D-04  0.00D+00 EMaxC= 1.00D-01 BMatC= 4.05D-07 BMatP= 8.03D-06
 IDIUse=3 WtCom= 9.99D-01 WtEn= 1.25D-03
 Coeff-Com: -0.406D-03 0.522D-02 0.302D-01-0.342D+00 0.131D+01
 Coeff-En:   0.000D+00 0.000D+00 0.000D+00 0.000D+00 0.100D+01
 Coeff:     -0.406D-03 0.522D-02 0.302D-01-0.342D+00 0.131D+01
 Gap=     0.548 Goal=   None    Shift=    0.000
 RMSDP=8.78D-06 MaxDP=1.75D-04 DE=-1.56D-05 OVMax= 5.47D-04

 Cycle   6  Pass 1  IDiag  1:
 E= -76.0481756313484     Delta-E=       -0.000000940437 Rises=F Damp=F
 DIIS: error= 1.67D-05 at cycle   6 NSaved=   6.
 NSaved= 6 IEnMin= 6 EnMin= -76.0481756313484     IErMin= 6 ErrMin= 1.67D-05
 ErrMax= 1.67D-05  0.00D+00 EMaxC= 1.00D-01 BMatC= 1.11D-08 BMatP= 4.05D-07
 IDIUse=1 WtCom= 1.00D+00 WtEn= 0.00D+00
 Coeff-Com: -0.828D-04-0.177D-03-0.254D-02 0.739D-01-0.430D+00 0.136D+01
 Coeff:     -0.828D-04-0.177D-03-0.254D-02 0.739D-01-0.430D+00 0.136D+01
 Gap=     0.548 Goal=   None    Shift=    0.000
 RMSDP=1.41D-06 MaxDP=3.52D-05 DE=-9.40D-07 OVMax= 9.38D-05

 Cycle   7  Pass 1  IDiag  1:
 E= -76.0481756577715     Delta-E=       -0.000000026423 Rises=F Damp=F
 DIIS: error= 3.11D-06 at cycle   7 NSaved=   7.
 NSaved= 7 IEnMin= 7 EnMin= -76.0481756577715     IErMin= 7 ErrMin= 3.11D-06
 ErrMax= 3.11D-06  0.00D+00 EMaxC= 1.00D-01 BMatC= 2.44D-10 BMatP= 1.11D-08
 IDIUse=1 WtCom= 1.00D+00 WtEn= 0.00D+00
 Coeff-Com:  0.242D-04-0.474D-04 0.888D-04-0.107D-01 0.723D-01-0.339D+00
 Coeff-Com:  0.128D+01
 Coeff:      0.242D-04-0.474D-04 0.888D-04-0.107D-01 0.723D-01-0.339D+00
 Coeff:      0.128D+01
 Gap=     0.548 Goal=   None    Shift=    0.000
 RMSDP=2.08D-07 MaxDP=5.23D-06 DE=-2.64D-08 OVMax= 1.67D-05

 Cycle   8  Pass 1  IDiag  1:
 E= -76.0481756584207     Delta-E=       -0.000000000649 Rises=F Damp=F
 DIIS: error= 4.16D-07 at cycle   8 NSaved=   8.
 NSaved= 8 IEnMin= 8 EnMin= -76.0481756584207     IErMin= 8 ErrMin= 4.16D-07
 ErrMax= 4.16D-07  0.00D+00 EMaxC= 1.00D-01 BMatC= 8.31D-12 BMatP= 2.44D-10
 IDIUse=1 WtCom= 1.00D+00 WtEn= 0.00D+00
 Coeff-Com:  0.519D-06 0.123D-04 0.996D-04-0.164D-02 0.102D-01-0.208D-01
 Coeff-Com: -0.156D+00 0.117D+01
 Coeff:      0.519D-06 0.123D-04 0.996D-04-0.164D-02 0.102D-01-0.208D-01
 Coeff:     -0.156D+00 0.117D+01
 Gap=     0.548 Goal=   None    Shift=    0.000
 RMSDP=5.21D-08 MaxDP=1.42D-06 DE=-6.49D-10 OVMax= 2.86D-06

 Cycle   9  Pass 1  IDiag  1:
 E= -76.0481756584400     Delta-E=       -0.000000000019 Rises=F Damp=F
 DIIS: error= 7.25D-08 at cycle   9 NSaved=   9.
 NSaved= 9 IEnMin= 9 EnMin= -76.0481756584400     IErMin= 9 ErrMin= 7.25D-08
 ErrMax= 7.25D-08  0.00D+00 EMaxC= 1.00D-01 BMatC= 1.89D-13 BMatP= 8.31D-12
 IDIUse=1 WtCom= 1.00D+00 WtEn= 0.00D+00
 Coeff-Com: -0.945D-06 0.754D-06-0.165D-04 0.580D-03-0.386D-02 0.148D-01
 Coeff-Com: -0.234D-01-0.122D+00 0.113D+01
 Coeff:     -0.945D-06 0.754D-06-0.165D-04 0.580D-03-0.386D-02 0.148D-01
 Coeff:     -0.234D-01-0.122D+00 0.113D+01
 Gap=     0.548 Goal=   None    Shift=    0.000
 RMSDP=7.77D-09 MaxDP=1.79D-07 DE=-1.93D-11 OVMax= 3.05D-07

 SCF Done:  E(RHF) =  -76.0481756584     A.U. after    9 cycles
            NFock=  9  Conv=0.78D-08     -V/T= 1.9981
 KE= 7.619614067450D+01 PE=-2.001316481154D+02 EE= 3.815555408705D+01
 Leave Link  502 at Wed Feb  8 13:47:35 2023, MaxMem=   754974720 cpu:              21.4 elap:              10.7
 (Enter /opt/cluster/programs/g16-c.01/g16/l801.exe)
 Windowed orbitals will be sorted by symmetry type.
 ExpMin= 2.53D-02 ExpMax= 1.53D+04 ExpMxC= 5.22D+02 IAcc=3 IRadAn=         5 AccDes= 0.00D+00
 HarFok:  IExCor=  205 AccDes= 0.00D+00 IRadAn=         5 IDoV=-2 UseB2=F ITyADJ=14
 ICtDFT= 12500011 ScaDFX=  1.000000  1.000000  1.000000  1.000000
 Largest valence mixing into a core orbital is  1.09D-04
 Largest core mixing into a valence orbital is  1.51D-05
 Range of M.O.s used for correlation:     2    92
 NBasis=    92 NAE=     5 NBE=     5 NFC=     1 NFV=     0
 NROrb=     91 NOA=     4 NOB=     4 NVA=    87 NVB=    87

 **** Warning!!: The largest alpha MO coefficient is  0.16976133D+02

 Leave Link  801 at Wed Feb  8 13:47:37 2023, MaxMem=   754974720 cpu:               0.6 elap:               0.3
 (Enter /opt/cluster/programs/g16-c.01/g16/l804.exe)
 Closed-shell transformation, MDV=   754974720 ITran=4 ISComp=2.
 Unit  1 TFree=        277513 TCopy=        242092.
 Semi-Direct transformation.
 ModeAB=           4 MOrb=             4 LenV=     754588990
 LASXX=       368428 LTotXX=      368428 LenRXX=      751146
 LTotAB=      382718 MaxLAS=     1379560 LenRXY=           0
 NonZer=     1119574 LenScr=     2357760 LnRSAI=     1379560
 LnScr1=     2758656 LExtra=           0 Total=      7247122
 MaxDsk=          -1 SrtSym=           T ITran=            4
 DoSDTr:  NPSUse=  4
 JobTyp=0 Pass  1:  I=   1 to   4.
 (rs|ai) integrals will be sorted in core.
 Complete sort for first half transformation.
 First half transformation complete.
 Complete sort for second half transformation.
 Second half transformation complete.
 Spin components of T(2) and E(2):
     alpha-alpha T2 =       0.7850882278D-02 E2=     -0.3241670699D-01
     alpha-beta  T2 =       0.4514669971D-01 E2=     -0.2014448609D+00
     beta-beta   T2 =       0.7850882278D-02 E2=     -0.3241670699D-01
 ANorm=    0.1029974982D+01
 E2 =    -0.2662782748D+00 EUMP2 =    -0.76314453933272D+02
 Leave Link  804 at Wed Feb  8 13:47:48 2023, MaxMem=   754974720 cpu:              18.0 elap:               9.0
 (Enter /opt/cluster/programs/g16-c.01/g16/l913.exe)
 CIDS:  MDV=   754974720.
 Frozen-core window:  NFC=   1 NFV=   0.
 IFCWin=0 IBDFC=1 NFBD=     0     0 NFCmp=     0     0 NFFFC=     0     0
 Using DD3R+UMP44R for 1st iteration.
 Using DD4RQ for 2nd and later iterations.
 Keep R2 and R3 ints in memory in symmetry-blocked form, NReq=11500115.
 FoFCou: FMM=F IPFlag=           0 FMFlag=           0 FMFlg1=           0
         NFxFlg=           0 DoJE=F BraDBF=F KetDBF=F FulRan=T
         wScrn=  0.000000 ICntrl=       600 IOpCl=  0 I1Cent=           0 NGrid=           0
         NMat0=    1 NMatS0=   4278 NMatT0=    0 NMatD0=    1 NMtDS0=    0 NMtDT0=    0
 Petite list used in FoFCou.
 CIDS: In Core Option IDoMem=           1.
 CCSD(T)
 =======
 Iterations=  50 Convergence= 0.100D-06
 Produce multiple copies of IABC intergrals
 Iteration Nr.   1
 **********************
 DD1Dir will call FoFMem   1 times, MxPair=        20
 NAB=    10 NAA=     0 NBB=     0.
 MP4(R+Q)=  0.39507760D-02
 Maximum subspace dimension=  5
 A-vector RMS=  2.6844999D-03 Max=  1.0911081D-02 conv= 1.00D-05.
 RLE energy=       -0.2655159252
 E3=       -0.32262947D-02        EUMP3=      -0.76317680228D+02
 E4(DQ)=   -0.34591324D-03        UMP4(DQ)=   -0.76318026141D+02
 E4(SDQ)=  -0.20667779D-02        UMP4(SDQ)=  -0.76319747006D+02
 VARIATIONAL ENERGIES WITH THE FIRST-ORDER WAVEFUNCTION:
 DE(Corr)= -0.26551374     E(Corr)=     -76.313689401    
 NORM(A)=   0.10298520D+01
 Iteration Nr.   2
 **********************
 DD1Dir will call FoFMem   1 times, MxPair=        20
 NAB=    10 NAA=     0 NBB=     0.
 A-vector RMS=  2.7254038D-04 Max=  1.9611386D-03 conv= 1.00D-05.
 RLE energy=       -0.2708258297
 DE(Corr)= -0.27048268     E(CORR)=     -76.318658342     Delta=-4.97D-03
 NORM(A)=   0.10317056D+01
 Iteration Nr.   3
 **********************
 DD1Dir will call FoFMem   1 times, MxPair=        20
 NAB=    10 NAA=     0 NBB=     0.
 A-vector RMS=  3.5830089D-04 Max=  1.9404742D-03 conv= 1.00D-05.
 RLE energy=       -0.2710894432
 DE(Corr)= -0.27076815     E(CORR)=     -76.318943810     Delta=-2.85D-04
 NORM(A)=   0.10320456D+01
 Iteration Nr.   4
 **********************
 DD1Dir will call FoFMem   1 times, MxPair=        20
 NAB=    10 NAA=     0 NBB=     0.
 A-vector RMS=  5.2606112D-05 Max=  3.1731248D-04 conv= 1.00D-05.
 RLE energy=       -0.2711169554
 DE(Corr)= -0.27109384     E(CORR)=     -76.319269501     Delta=-3.26D-04
 NORM(A)=   0.10321389D+01
 Iteration Nr.   5
 **********************
 DD1Dir will call FoFMem   1 times, MxPair=        20
 NAB=    10 NAA=     0 NBB=     0.
 A-vector RMS=  2.5849726D-05 Max=  1.6638631D-04 conv= 1.00D-05.
 RLE energy=       -0.2711265364
 DE(Corr)= -0.27112237     E(CORR)=     -76.319298026     Delta=-2.85D-05
 NORM(A)=   0.10321569D+01
 Iteration Nr.   6
 **********************
 DD1Dir will call FoFMem   1 times, MxPair=        20
 NAB=    10 NAA=     0 NBB=     0.
 A-vector RMS=  6.1014621D-06 Max=  3.7721204D-05 conv= 1.00D-05.
 RLE energy=       -0.2711236526
 DE(Corr)= -0.27112436     E(CORR)=     -76.319300020     Delta=-1.99D-06
 NORM(A)=   0.10321585D+01
 Iteration Nr.   7
 **********************
 DD1Dir will call FoFMem   1 times, MxPair=        20
 NAB=    10 NAA=     0 NBB=     0.
 A-vector RMS=  1.8868111D-06 Max=  1.0587400D-05 conv= 1.00D-05.
 RLE energy=       -0.2711236113
 DE(Corr)= -0.27112433     E(CORR)=     -76.319299991     Delta= 2.87D-08
 NORM(A)=   0.10321590D+01
 Iteration Nr.   8
 **********************
 DD1Dir will call FoFMem   1 times, MxPair=        20
 NAB=    10 NAA=     0 NBB=     0.
 A-vector RMS=  7.3720387D-07 Max=  4.9579380D-06 conv= 1.00D-05.
 RLE energy=       -0.2711240726
 DE(Corr)= -0.27112415     E(CORR)=     -76.319299805     Delta= 1.86D-07
 NORM(A)=   0.10321593D+01
 Iteration Nr.   9
 **********************
 DD1Dir will call FoFMem   1 times, MxPair=        20
 NAB=    10 NAA=     0 NBB=     0.
 A-vector RMS=  1.3963669D-07 Max=  8.1772681D-07 conv= 1.00D-05.
 RLE energy=       -0.2711241444
 DE(Corr)= -0.27112415     E(CORR)=     -76.319299813     Delta=-7.87D-09
 NORM(A)=   0.10321594D+01
 CI/CC converged in    9 iterations to DelEn=-7.87D-09 Conv= 1.00D-07 ErrA1= 1.40D-07 Conv= 1.00D-05
 Wavefunction amplitudes converged. E(Corr)=     -76.319299813    
 Largest amplitude= 2.02D-02
 IPart=  1 IA=    6   11.23% done.
 IPart=  3 IA=   11   21.79% done.
 IPart=  2 IA=   16   31.68% done.
 IPart=  3 IA=   21   40.90% done.
 IPart=  4 IA=   27   51.08% done.
 IPart=  1 IA=   33   60.30% done.
 IPart=  1 IA=   41   71.10% done.
 IPart=  1 IA=   49   80.19% done.
 IPart=  3 IA=   61   90.62% done.
 Time for triples=        4.85 seconds.
 T4(CCSD)= -0.85956216D-02
 T5(CCSD)=  0.29058284D-03
 CCSD(T)= -0.76327604852D+02
 Discarding MO integrals.
 Leave Link  913 at Wed Feb  8 13:48:36 2023, MaxMem=   754974720 cpu:              90.2 elap:              45.1
 (Enter /opt/cluster/programs/g16-c.01/g16/l601.exe)
 Copying SCF densities to generalized density rwf, IOpCl= 0 IROHF=0.

 **********************************************************************

            Population analysis using the SCF Density.

 **********************************************************************

 Orbital symmetries:
       Occupied  (A1) (A1) (B2) (A1) (B1)
       Virtual   (A1) (B2) (A1) (B1) (A1) (B2) (B2) (A1) (A2) (B1)
                 (A1) (B2) (A1) (B2) (B2) (A1) (A1) (B1) (A2) (A1)
                 (B1) (A1) (B1) (B2) (A2) (A1) (B2) (A1) (B2) (B1)
                 (B2) (A2) (A1) (B2) (A1) (A2) (B1) (A1) (B2) (B2)
                 (A1) (B1) (A2) (A1) (A1) (B1) (B2) (A1) (B2) (B1)
                 (B2) (A1) (A2) (A1) (B2) (B1) (A1) (B1) (A2) (A2)
                 (A1) (B1) (B2) (B2) (A1) (B2) (B2) (A2) (A1) (B2)
                 (B1) (A1) (A1) (B2) (B1) (B1) (B2) (A1) (A2) (B1)
                 (A2) (A1) (A1) (A1) (B2) (B2) (A1)
 The electronic state is 1-A1.
 Alpha  occ. eigenvalues --  -20.56399  -1.39492  -0.70727  -0.62724  -0.51877
 Alpha virt. eigenvalues --    0.02878   0.04883   0.13323   0.15882   0.17850
 Alpha virt. eigenvalues --    0.18655   0.22751   0.24992   0.27132   0.28802
 Alpha virt. eigenvalues --    0.30367   0.37301   0.44254   0.47634   0.59294
 Alpha virt. eigenvalues --    0.67428   0.70418   0.72299   0.73593   0.85766
 Alpha virt. eigenvalues --    0.86845   0.89509   0.90044   0.92267   0.92876
 Alpha virt. eigenvalues --    0.94231   0.95948   1.04257   1.05925   1.08053
 Alpha virt. eigenvalues --    1.11890   1.19688   1.21612   1.24884   1.44740
 Alpha virt. eigenvalues --    1.54723   1.57272   1.79614   1.97441   2.02363
 Alpha virt. eigenvalues --    2.19935   2.27960   2.33093   2.33290   2.40231
 Alpha virt. eigenvalues --    2.42262   2.45631   2.54672   2.63155   2.69179
 Alpha virt. eigenvalues --    2.70864   2.88476   2.90323   3.56920   3.76242
 Alpha virt. eigenvalues --    4.01745   4.07230   4.14962   4.19973   4.43870
 Alpha virt. eigenvalues --    4.44560   4.44598   4.45923   4.65149   4.83405
 Alpha virt. eigenvalues --    5.06587   5.12528   5.27330   5.31578   5.60705
 Alpha virt. eigenvalues --    5.69670   5.71816   6.32860   6.50474   6.70977
 Alpha virt. eigenvalues --    7.19157   7.20029   7.28681   7.29437   7.34814
 Alpha virt. eigenvalues --    7.48622   7.52241   7.58857   7.78958   8.24876
 Alpha virt. eigenvalues --    9.13749  17.51011
          Condensed to atoms (all electrons):
               1          2          3
     1  O    7.828128   0.271326   0.271326
     2  H    0.271326   0.530271   0.013012
     3  H    0.271326   0.013012   0.530271
 Mulliken charges:
               1
     1  O   -0.370781
     2  H    0.185391
     3  H    0.185391
 Sum of Mulliken charges =   0.00000
 Mulliken charges with hydrogens summed into heavy atoms:
               1
     1  O    0.000000
 Electronic spatial extent (au):  <R**2>=             18.8089
 Charge=              0.0000 electrons
 Dipole moment (field-independent basis, Debye):
    X=             -0.0000    Y=             -0.0000    Z=             -2.1792  Tot=              2.1792
 Quadrupole moment (field-independent basis, Debye-Ang):
   XX=             -7.4270   YY=             -5.0006   ZZ=             -5.7486
   XY=              0.0000   XZ=              0.0000   YZ=              0.0000
 Traceless Quadrupole moment (field-independent basis, Debye-Ang):
   XX=             -1.3683   YY=              1.0581   ZZ=              0.3101
   XY=              0.0000   XZ=              0.0000   YZ=              0.0000
 Octapole moment (field-independent basis, Debye-Ang**2):
  XXX=              0.0000  YYY=             -0.0000  ZZZ=             -1.4852  XYY=             -0.0000
  XXY=              0.0000  XXZ=             -0.3107  XZZ=              0.0000  YZZ=             -0.0000
  YYZ=             -1.1600  XYZ=             -0.0000
 Hexadecapole moment (field-independent basis, Debye-Ang**3):
 XXXX=             -6.5035 YYYY=             -6.0155 ZZZZ=             -6.8406 XXXY=             -0.0000
 XXXZ=             -0.0000 YYYX=             -0.0000 YYYZ=              0.0000 ZZZX=             -0.0000
 ZZZY=             -0.0000 XXYY=             -2.2435 XXZZ=             -2.3030 YYZZ=             -1.7454
 XXYZ=             -0.0000 YYXZ=              0.0000 ZZXY=              0.0000
 N-N= 9.731777695444D+00 E-N=-2.001316475319D+02  KE= 7.619614067450D+01
 Symmetry A1   KE= 6.794197170291D+01
 Symmetry A2   KE= 1.275268049069D-19
 Symmetry B1   KE= 4.473553479780D+00
 Symmetry B2   KE= 3.780615491812D+00
 Leave Link  601 at Wed Feb  8 13:48:38 2023, MaxMem=   754974720 cpu:               1.1 elap:               0.6
 (Enter /opt/cluster/programs/g16-c.01/g16/l9999.exe)
 Unable to Open any file for archive entry.
 1\1\GINC-NODE59\SP\RCCSD(T)-FC\Aug-CC-pVTZ\H2O1\BOITTIER\08-Feb-2023\0
 \\#P CCSD(T)/aug-cc-pVTZ scf(maxcycle=200)\\Gaussian input\\0,1\O,0,0.
 ,0.11751,0.\H,0,0.7183372325,-0.4395112028,0.\H,0,-0.537386867,-0.6156
 314292,0.\\Version=ES64L-G16RevC.01\State=1-A1\HF=-76.0481757\MP2=-76.
 3144539\MP3=-76.3176802\MP4D=-76.3219769\MP4DQ=-76.3180261\MP4SDQ=-76.
 319747\CCSD=-76.3192998\CCSD(T)=-76.3276049\RMSD=7.766e-09\PG=C02V [C2
 (O1),SGV(H2)]\\@
 The archive entry for this job was punched.


 If fifty million people say a stupid thing,
 it is still a stupid thing.
                   -- Anatole France
 Job cpu time:       0 days  0 hours  2 minutes 24.4 seconds.
 Elapsed time:       0 days  0 hours  1 minutes 13.6 seconds.
 File lengths (MBytes):  RWF=     64 Int=      0 D2E=      0 Chk=      2 Scr=      1
 Normal termination of Gaussian 16 at Wed Feb  8 13:48:40 2023.
