 Entering Gaussian System, Link 0=/opt/cluster/programs/g16-c.01/g16/g16
 Input=/scratch/boittier/jobs/tmp.7262095/gaussian_152_water_wb97_ptz.com
 Output=/scratch/boittier/jobs/tmp.7262095/gaussian_152_water_wb97_ptz.out
 Initial command:
 /opt/cluster/programs/g16-c.01/g16/l1.exe "/scratch/boittier/jobs/tmp.7262095/Gau-46738.inp" -scrdir="/scratch/boittier/jobs/tmp.7262095/"
 Entering Link 1 = /opt/cluster/programs/g16-c.01/g16/l1.exe PID=     46739.
  
 Copyright (c) 1988-2019, Gaussian, Inc.  All Rights Reserved.
  
 This is part of the Gaussian(R) 16 program.  It is based on
 the Gaussian(R) 09 system (copyright 2009, Gaussian, Inc.),
 the Gaussian(R) 03 system (copyright 2003, Gaussian, Inc.),
 the Gaussian(R) 98 system (copyright 1998, Gaussian, Inc.),
 the Gaussian(R) 94 system (copyright 1995, Gaussian, Inc.),
 the Gaussian 92(TM) system (copyright 1992, Gaussian, Inc.),
 the Gaussian 90(TM) system (copyright 1990, Gaussian, Inc.),
 the Gaussian 88(TM) system (copyright 1988, Gaussian, Inc.),
 the Gaussian 86(TM) system (copyright 1986, Carnegie Mellon
 University), and the Gaussian 82(TM) system (copyright 1983,
 Carnegie Mellon University). Gaussian is a federally registered
 trademark of Gaussian, Inc.
  
 This software contains proprietary and confidential information,
 including trade secrets, belonging to Gaussian, Inc.
  
 This software is provided under written license and may be
 used, copied, transmitted, or stored only in accord with that
 written license.
  
 The following legend is applicable only to US Government
 contracts under FAR:
  
                    RESTRICTED RIGHTS LEGEND
  
 Use, reproduction and disclosure by the US Government is
 subject to restrictions as set forth in subparagraphs (a)
 and (c) of the Commercial Computer Software - Restricted
 Rights clause in FAR 52.227-19.
  
 Gaussian, Inc.
 340 Quinnipiac St., Bldg. 40, Wallingford CT 06492
  
  
 ---------------------------------------------------------------
 Warning -- This program may not be used in any manner that
 competes with the business of Gaussian, Inc. or will provide
 assistance to any competitor of Gaussian, Inc.  The licensee
 of this program is prohibited from giving any competitor of
 Gaussian, Inc. access to this program.  By using this program,
 the user acknowledges that Gaussian, Inc. is engaged in the
 business of creating and licensing software in the field of
 computational chemistry and represents and warrants to the
 licensee that it is not a competitor of Gaussian, Inc. and that
 it will not use this program in any manner prohibited above.
 ---------------------------------------------------------------
  

 Cite this work as:
 Gaussian 16, Revision C.01,
 M. J. Frisch, G. W. Trucks, H. B. Schlegel, G. E. Scuseria, 
 M. A. Robb, J. R. Cheeseman, G. Scalmani, V. Barone, 
 G. A. Petersson, H. Nakatsuji, X. Li, M. Caricato, A. V. Marenich, 
 J. Bloino, B. G. Janesko, R. Gomperts, B. Mennucci, H. P. Hratchian, 
 J. V. Ortiz, A. F. Izmaylov, J. L. Sonnenberg, D. Williams-Young, 
 F. Ding, F. Lipparini, F. Egidi, J. Goings, B. Peng, A. Petrone, 
 T. Henderson, D. Ranasinghe, V. G. Zakrzewski, J. Gao, N. Rega, 
 G. Zheng, W. Liang, M. Hada, M. Ehara, K. Toyota, R. Fukuda, 
 J. Hasegawa, M. Ishida, T. Nakajima, Y. Honda, O. Kitao, H. Nakai, 
 T. Vreven, K. Throssell, J. A. Montgomery, Jr., J. E. Peralta, 
 F. Ogliaro, M. J. Bearpark, J. J. Heyd, E. N. Brothers, K. N. Kudin, 
 V. N. Staroverov, T. A. Keith, R. Kobayashi, J. Normand, 
 K. Raghavachari, A. P. Rendell, J. C. Burant, S. S. Iyengar, 
 J. Tomasi, M. Cossi, J. M. Millam, M. Klene, C. Adamo, R. Cammi, 
 J. W. Ochterski, R. L. Martin, K. Morokuma, O. Farkas, 
 J. B. Foresman, and D. J. Fox, Gaussian, Inc., Wallingford CT, 2019.
 
 ******************************************
 Gaussian 16:  ES64L-G16RevC.01  3-Jul-2019
                 8-Feb-2023 
 ******************************************
 %nproc=4
 Will use up to    4 processors via shared memory.
 %mem=5760MB
 %chk=gaussian_152_water_wb97_ptz.chk
 ------------------------------------
 #P wB97XD/6-311g** scf(maxcycle=200)
 ------------------------------------
 1/38=1,172=1/1;
 2/12=2,17=6,18=5,40=1/2;
 3/5=4,6=6,7=101,11=2,25=1,30=1,74=-58/1,2,3;
 4//1;
 5/5=2,7=200,38=5/2;
 6/7=2,8=2,9=2,10=2,28=1/1;
 99/5=1,9=1/99;
 Leave Link    1 at Wed Feb  8 14:42:37 2023, MaxMem=   754974720 cpu:               0.1 elap:               0.0
 (Enter /opt/cluster/programs/g16-c.01/g16/l101.exe)
 --------------
 Gaussian input
 --------------
 Symbolic Z-matrix:
 Charge =  0 Multiplicity = 1
 O                     0.        0.11751   0. 
 H                     0.79736  -0.50079   0. 
 H                    -0.7973   -0.41541   0. 
 
 ITRead=  0  0  0
 MicOpt= -1 -1 -1
 NAtoms=      3 NQM=        3 NQMF=       0 NMMI=      0 NMMIF=      0
                NMic=       0 NMicF=      0.
                    Isotopes and Nuclear Properties:
 (Nuclear quadrupole moments (NQMom) in fm**2, nuclear magnetic moments (NMagM)
  in nuclear magnetons)

  Atom         1           2           3
 IAtWgt=          16           1           1
 AtmWgt=  15.9949146   1.0078250   1.0078250
 NucSpn=           0           1           1
 AtZEff=  -0.0000000  -0.0000000  -0.0000000
 NQMom=    0.0000000   0.0000000   0.0000000
 NMagM=    0.0000000   2.7928460   2.7928460
 AtZNuc=   8.0000000   1.0000000   1.0000000
 Leave Link  101 at Wed Feb  8 14:42:37 2023, MaxMem=   754974720 cpu:               0.5 elap:               0.2
 (Enter /opt/cluster/programs/g16-c.01/g16/l202.exe)
                          Input orientation:                          
 ---------------------------------------------------------------------
 Center     Atomic      Atomic             Coordinates (Angstroms)
 Number     Number       Type             X           Y           Z
 ---------------------------------------------------------------------
      1          8           0        0.000000    0.117510    0.000000
      2          1           0        0.797362   -0.500790    0.000000
      3          1           0       -0.797297   -0.415405    0.000000
 ---------------------------------------------------------------------
                    Distance matrix (angstroms):
                    1          2          3
     1  O    0.000000
     2  H    1.009000   0.000000
     3  H    0.959000   1.596943   0.000000
 Stoichiometry    H2O
 Framework group  CS[SG(H2O)]
 Deg. of freedom     3
 Full point group                 CS      NOp   2
 Largest Abelian subgroup         CS      NOp   2
 Largest concise Abelian subgroup C1      NOp   1
                         Standard orientation:                         
 ---------------------------------------------------------------------
 Center     Atomic      Atomic             Coordinates (Angstroms)
 Number     Number       Type             X           Y           Z
 ---------------------------------------------------------------------
      1          8           0        0.000000    0.115122    0.000000
      2          1           0        0.797327   -0.503223   -0.000000
      3          1           0       -0.797327   -0.417749    0.000000
 ---------------------------------------------------------------------
 Rotational constants (GHZ):         856.6446739         392.3040862         269.0784576
 Leave Link  202 at Wed Feb  8 14:42:37 2023, MaxMem=   754974720 cpu:               0.1 elap:               0.0
 (Enter /opt/cluster/programs/g16-c.01/g16/l301.exe)
 Standard basis: 6-311G(d,p) (5D, 7F)
 Ernie: Thresh=  0.10000D-02 Tol=  0.10000D-05 Strict=F.
 There are    24 symmetry adapted cartesian basis functions of A'  symmetry.
 There are     7 symmetry adapted cartesian basis functions of A"  symmetry.
 There are    23 symmetry adapted basis functions of A'  symmetry.
 There are     7 symmetry adapted basis functions of A"  symmetry.
    30 basis functions,    48 primitive gaussians,    31 cartesian basis functions
     5 alpha electrons        5 beta electrons
       nuclear repulsion energy         8.9414340293 Hartrees.
 IExCor= 4639 DFT=T Ex+Corr=wB97XD ExCW=0 ScaHFX=  1.000000
 ScaDFX=  1.000000  1.000000  1.000000  1.000000 ScalE2=  1.000000  1.000000
 IRadAn=      5 IRanWt=     -1 IRanGd=            0 ICorTp=0 IEmpDi=121
 HFx  wShort=  0.000000 wLong=  0.200000 cFull=  0.222036 cShort=  0.000000 cLong=  0.777964
 DFx  wShort=  0.000000 wLong=  0.200000 cFull=  0.000000 cShort=  0.000000 cLong=  1.000000
 NAtoms=    3 NActive=    3 NUniq=    3 SFac= 1.00D+00 NAtFMM=   60 NAOKFM=F Big=F
 Integral buffers will be    131072 words long.
 Raffenetti 2 integral format.
 Two-electron integral symmetry is turned on.
 R6Disp:  Grimme-D2 Dispersion energy=       -0.0000364996 Hartrees.
 Nuclear repulsion after empirical dispersion term =        8.9413975297 Hartrees.
 Leave Link  301 at Wed Feb  8 14:42:37 2023, MaxMem=   754974720 cpu:               0.1 elap:               0.0
 (Enter /opt/cluster/programs/g16-c.01/g16/l302.exe)
 NPDir=0 NMtPBC=     1 NCelOv=     1 NCel=       1 NClECP=     1 NCelD=      1
         NCelK=      1 NCelE2=     1 NClLst=     1 CellRange=     0.0.
 One-electron integrals computed using PRISM.
 One-electron integral symmetry used in STVInt
 NBasis=    30 RedAO= T EigKep=  2.03D-02  NBF=    23     7
 NBsUse=    30 1.00D-06 EigRej= -1.00D+00 NBFU=    23     7
 Precomputing XC quadrature grid using
 IXCGrd= 4 IRadAn=           5 IRanWt=          -1 IRanGd=           0 AccXCQ= 0.00D+00.
 Generated NRdTot=       0 NPtTot=           0 NUsed=           0 NTot=          32
 NSgBfM=    31    31    31    31    31 MxSgAt=     3 MxSgA2=     3.
 Leave Link  302 at Wed Feb  8 14:42:37 2023, MaxMem=   754974720 cpu:               0.4 elap:               0.1
 (Enter /opt/cluster/programs/g16-c.01/g16/l303.exe)
 DipDrv:  MaxL=1.
 Leave Link  303 at Wed Feb  8 14:42:37 2023, MaxMem=   754974720 cpu:               0.2 elap:               0.1
 (Enter /opt/cluster/programs/g16-c.01/g16/l401.exe)
 ExpMin= 1.03D-01 ExpMax= 8.59D+03 ExpMxC= 1.30D+03 IAcc=3 IRadAn=         5 AccDes= 0.00D+00
 Harris functional with IExCor= 4639 and IRadAn=       5 diagonalized for initial guess.
 HarFok:  IExCor= 4639 AccDes= 0.00D+00 IRadAn=         5 IDoV= 1 UseB2=F ITyADJ=14
 ICtDFT=  3500011 ScaDFX=  1.000000  1.000000  1.000000  1.000000
 FoFCou: FMM=F IPFlag=           0 FMFlag=      100000 FMFlg1=           0
         NFxFlg=           0 DoJE=T BraDBF=F KetDBF=T FulRan=T
         wScrn=  0.000000 ICntrl=       500 IOpCl=  0 I1Cent=   200000004 NGrid=           0
         NMat0=    1 NMatS0=      1 NMatT0=    0 NMatD0=    1 NMtDS0=    0 NMtDT0=    0
 Petite list used in FoFCou.
 Harris En= -73.6152239410361    
 JPrj=0 DoOrth=F DoCkMO=F.
 Initial guess orbital symmetries:
       Occupied  (A') (A') (A') (A') (A")
       Virtual   (A') (A') (A') (A') (A') (A") (A') (A') (A") (A')
                 (A") (A') (A') (A') (A') (A') (A") (A") (A') (A')
                 (A') (A") (A') (A') (A')
 The electronic state of the initial guess is 1-A'.
 Leave Link  401 at Wed Feb  8 14:42:38 2023, MaxMem=   754974720 cpu:               0.7 elap:               0.2
 (Enter /opt/cluster/programs/g16-c.01/g16/l502.exe)
 Keep R1 ints in memory in symmetry-blocked form, NReq=3688183.
 FoFCou: FMM=F IPFlag=           0 FMFlag=           0 FMFlg1=           0
         NFxFlg=           0 DoJE=F BraDBF=F KetDBF=F FulRan=T
         wScrn=  0.000000 ICntrl=       600 IOpCl=  0 I1Cent=           0 NGrid=           0
         NMat0=    1 NMatS0=    465 NMatT0=    0 NMatD0=    1 NMtDS0=    0 NMtDT0=    0
 Petite list used in FoFCou.
 Closed shell SCF:
 Using DIIS extrapolation, IDIIS=  1040.
 NGot=   754974720 LenX=   754911268 LenY=   754909866
 Requested convergence on RMS density matrix=1.00D-08 within 200 cycles.
 Requested convergence on MAX density matrix=1.00D-06.
 Requested convergence on             energy=1.00D-06.
 No special actions if energy rises.
 Integral accuracy reduced to 1.0D-05 until final iterations.

 Cycle   1  Pass 0  IDiag  1:
 E= -76.4098119514453    
 DIIS: error= 8.28D-02 at cycle   1 NSaved=   1.
 NSaved= 1 IEnMin= 1 EnMin= -76.4098119514453     IErMin= 1 ErrMin= 8.28D-02
 ErrMax= 8.28D-02  0.00D+00 EMaxC= 1.00D-01 BMatC= 1.30D-01 BMatP= 1.30D-01
 IDIUse=3 WtCom= 1.72D-01 WtEn= 8.28D-01
 Coeff-Com:  0.100D+01
 Coeff-En:   0.100D+01
 Coeff:      0.100D+01
 Gap=     0.489 Goal=   None    Shift=    0.000
 GapD=    0.489 DampG=2.000 DampE=0.500 DampFc=1.0000 IDamp=-1.
 RMSDP=2.65D-03 MaxDP=2.37D-02              OVMax= 3.51D-02

 Cycle   2  Pass 0  IDiag  1:
 E= -76.4200726526095     Delta-E=       -0.010260701164 Rises=F Damp=F
 DIIS: error= 4.09D-03 at cycle   2 NSaved=   2.
 NSaved= 2 IEnMin= 2 EnMin= -76.4200726526095     IErMin= 2 ErrMin= 4.09D-03
 ErrMax= 4.09D-03  0.00D+00 EMaxC= 1.00D-01 BMatC= 5.41D-04 BMatP= 1.30D-01
 IDIUse=3 WtCom= 9.59D-01 WtEn= 4.09D-02
 Coeff-Com:  0.446D-01 0.955D+00
 Coeff-En:   0.000D+00 0.100D+01
 Coeff:      0.428D-01 0.957D+00
 Gap=     0.498 Goal=   None    Shift=    0.000
 RMSDP=3.27D-04 MaxDP=3.01D-03 DE=-1.03D-02 OVMax= 4.86D-03

 Cycle   3  Pass 0  IDiag  1:
 E= -76.4202744146790     Delta-E=       -0.000201762070 Rises=F Damp=F
 DIIS: error= 1.06D-03 at cycle   3 NSaved=   3.
 NSaved= 3 IEnMin= 3 EnMin= -76.4202744146790     IErMin= 3 ErrMin= 1.06D-03
 ErrMax= 1.06D-03  0.00D+00 EMaxC= 1.00D-01 BMatC= 2.83D-05 BMatP= 5.41D-04
 IDIUse=3 WtCom= 9.89D-01 WtEn= 1.06D-02
 Coeff-Com:  0.897D-02 0.196D+00 0.795D+00
 Coeff-En:   0.000D+00 0.000D+00 0.100D+01
 Coeff:      0.887D-02 0.194D+00 0.797D+00
 Gap=     0.496 Goal=   None    Shift=    0.000
 RMSDP=1.35D-04 MaxDP=1.62D-03 DE=-2.02D-04 OVMax= 1.89D-03

 Cycle   4  Pass 0  IDiag  1:
 E= -76.4202885034690     Delta-E=       -0.000014088790 Rises=F Damp=F
 DIIS: error= 5.26D-04 at cycle   4 NSaved=   4.
 NSaved= 4 IEnMin= 4 EnMin= -76.4202885034690     IErMin= 4 ErrMin= 5.26D-04
 ErrMax= 5.26D-04  0.00D+00 EMaxC= 1.00D-01 BMatC= 7.50D-06 BMatP= 2.83D-05
 IDIUse=3 WtCom= 9.95D-01 WtEn= 5.26D-03
 Coeff-Com:  0.141D-02 0.453D-01 0.350D+00 0.603D+00
 Coeff-En:   0.000D+00 0.000D+00 0.264D-01 0.974D+00
 Coeff:      0.140D-02 0.451D-01 0.348D+00 0.605D+00
 Gap=     0.497 Goal=   None    Shift=    0.000
 RMSDP=4.57D-05 MaxDP=6.59D-04 DE=-1.41D-05 OVMax= 5.97D-04

 Cycle   5  Pass 0  IDiag  1:
 E= -76.4202930584653     Delta-E=       -0.000004554996 Rises=F Damp=F
 DIIS: error= 9.48D-05 at cycle   5 NSaved=   5.
 NSaved= 5 IEnMin= 5 EnMin= -76.4202930584653     IErMin= 5 ErrMin= 9.48D-05
 ErrMax= 9.48D-05  0.00D+00 EMaxC= 1.00D-01 BMatC= 2.14D-07 BMatP= 7.50D-06
 IDIUse=1 WtCom= 1.00D+00 WtEn= 0.00D+00
 Coeff-Com: -0.744D-03-0.194D-01-0.484D-01 0.921D-01 0.976D+00
 Coeff:     -0.744D-03-0.194D-01-0.484D-01 0.921D-01 0.976D+00
 Gap=     0.497 Goal=   None    Shift=    0.000
 RMSDP=1.94D-05 MaxDP=2.24D-04 DE=-4.55D-06 OVMax= 3.21D-04

 Cycle   6  Pass 0  IDiag  1:
 E= -76.4202932997051     Delta-E=       -0.000000241240 Rises=F Damp=F
 DIIS: error= 1.31D-05 at cycle   6 NSaved=   6.
 NSaved= 6 IEnMin= 6 EnMin= -76.4202932997051     IErMin= 6 ErrMin= 1.31D-05
 ErrMax= 1.31D-05  0.00D+00 EMaxC= 1.00D-01 BMatC= 3.87D-09 BMatP= 2.14D-07
 IDIUse=1 WtCom= 1.00D+00 WtEn= 0.00D+00
 Coeff-Com:  0.111D-03 0.245D-02 0.394D-02-0.386D-01-0.146D+00 0.118D+01
 Coeff:      0.111D-03 0.245D-02 0.394D-02-0.386D-01-0.146D+00 0.118D+01
 Gap=     0.497 Goal=   None    Shift=    0.000
 RMSDP=4.26D-06 MaxDP=4.78D-05 DE=-2.41D-07 OVMax= 7.03D-05

 Initial convergence to 1.0D-05 achieved.  Increase integral accuracy.
 Cycle   7  Pass 1  IDiag  1:
 E= -76.4203014116048     Delta-E=       -0.000008111900 Rises=F Damp=F
 DIIS: error= 9.01D-06 at cycle   1 NSaved=   1.
 NSaved= 1 IEnMin= 1 EnMin= -76.4203014116048     IErMin= 1 ErrMin= 9.01D-06
 ErrMax= 9.01D-06  0.00D+00 EMaxC= 1.00D-01 BMatC= 2.40D-09 BMatP= 2.40D-09
 IDIUse=1 WtCom= 1.00D+00 WtEn= 0.00D+00
 Coeff-Com:  0.100D+01
 Coeff:      0.100D+01
 Gap=     0.497 Goal=   None    Shift=    0.000
 RMSDP=4.26D-06 MaxDP=4.78D-05 DE=-8.11D-06 OVMax= 1.66D-05

 Cycle   8  Pass 1  IDiag  1:
 E= -76.4203014139777     Delta-E=       -0.000000002373 Rises=F Damp=F
 DIIS: error= 1.30D-06 at cycle   2 NSaved=   2.
 NSaved= 2 IEnMin= 2 EnMin= -76.4203014139777     IErMin= 2 ErrMin= 1.30D-06
 ErrMax= 1.30D-06  0.00D+00 EMaxC= 1.00D-01 BMatC= 5.07D-11 BMatP= 2.40D-09
 IDIUse=1 WtCom= 1.00D+00 WtEn= 0.00D+00
 Coeff-Com: -0.895D-01 0.109D+01
 Coeff:     -0.895D-01 0.109D+01
 Gap=     0.497 Goal=   None    Shift=    0.000
 RMSDP=3.63D-07 MaxDP=2.71D-06 DE=-2.37D-09 OVMax= 6.20D-06

 Cycle   9  Pass 1  IDiag  1:
 E= -76.4203014140650     Delta-E=       -0.000000000087 Rises=F Damp=F
 DIIS: error= 4.07D-07 at cycle   3 NSaved=   3.
 NSaved= 3 IEnMin= 3 EnMin= -76.4203014140650     IErMin= 3 ErrMin= 4.07D-07
 ErrMax= 4.07D-07  0.00D+00 EMaxC= 1.00D-01 BMatC= 5.44D-12 BMatP= 5.07D-11
 IDIUse=1 WtCom= 1.00D+00 WtEn= 0.00D+00
 Coeff-Com: -0.310D-01 0.220D+00 0.811D+00
 Coeff:     -0.310D-01 0.220D+00 0.811D+00
 Gap=     0.497 Goal=   None    Shift=    0.000
 RMSDP=8.35D-08 MaxDP=1.01D-06 DE=-8.73D-11 OVMax= 1.54D-06

 Cycle  10  Pass 1  IDiag  1:
 E= -76.4203014140713     Delta-E=       -0.000000000006 Rises=F Damp=F
 DIIS: error= 2.48D-07 at cycle   4 NSaved=   4.
 NSaved= 4 IEnMin= 4 EnMin= -76.4203014140713     IErMin= 4 ErrMin= 2.48D-07
 ErrMax= 2.48D-07  0.00D+00 EMaxC= 1.00D-01 BMatC= 1.02D-12 BMatP= 5.44D-12
 IDIUse=1 WtCom= 1.00D+00 WtEn= 0.00D+00
 Coeff-Com: -0.346D-02-0.131D-01 0.211D+00 0.806D+00
 Coeff:     -0.346D-02-0.131D-01 0.211D+00 0.806D+00
 Gap=     0.497 Goal=   None    Shift=    0.000
 RMSDP=3.45D-08 MaxDP=3.28D-07 DE=-6.31D-12 OVMax= 5.69D-07

 Cycle  11  Pass 1  IDiag  1:
 E= -76.4203014140726     Delta-E=       -0.000000000001 Rises=F Damp=F
 DIIS: error= 7.01D-08 at cycle   5 NSaved=   5.
 NSaved= 5 IEnMin= 5 EnMin= -76.4203014140726     IErMin= 5 ErrMin= 7.01D-08
 ErrMax= 7.01D-08  0.00D+00 EMaxC= 1.00D-01 BMatC= 2.11D-13 BMatP= 1.02D-12
 IDIUse=1 WtCom= 1.00D+00 WtEn= 0.00D+00
 Coeff-Com:  0.554D-02-0.501D-01-0.993D-01 0.308D+00 0.836D+00
 Coeff:      0.554D-02-0.501D-01-0.993D-01 0.308D+00 0.836D+00
 Gap=     0.497 Goal=   None    Shift=    0.000
 RMSDP=2.16D-08 MaxDP=2.55D-07 DE=-1.29D-12 OVMax= 4.44D-07

 Cycle  12  Pass 1  IDiag  1:
 E= -76.4203014140728     Delta-E=       -0.000000000000 Rises=F Damp=F
 DIIS: error= 1.17D-08 at cycle   6 NSaved=   6.
 NSaved= 6 IEnMin= 6 EnMin= -76.4203014140728     IErMin= 6 ErrMin= 1.17D-08
 ErrMax= 1.17D-08  0.00D+00 EMaxC= 1.00D-01 BMatC= 2.58D-15 BMatP= 2.11D-13
 IDIUse=1 WtCom= 1.00D+00 WtEn= 0.00D+00
 Coeff-Com: -0.281D-03 0.430D-02 0.359D-02-0.747D-01-0.594D-01 0.113D+01
 Coeff:     -0.281D-03 0.430D-02 0.359D-02-0.747D-01-0.594D-01 0.113D+01
 Gap=     0.497 Goal=   None    Shift=    0.000
 RMSDP=3.57D-09 MaxDP=3.07D-08 DE=-1.56D-13 OVMax= 6.94D-08

 SCF Done:  E(RwB97XD) =  -76.4203014141     A.U. after   12 cycles
            NFock= 12  Conv=0.36D-08     -V/T= 2.0028
 KE= 7.620771202127D+01 PE=-1.990057289903D+02 EE= 3.743631802533D+01
 Leave Link  502 at Wed Feb  8 14:42:38 2023, MaxMem=   754974720 cpu:               2.1 elap:               0.5
 (Enter /opt/cluster/programs/g16-c.01/g16/l601.exe)
 Copying SCF densities to generalized density rwf, IOpCl= 0 IROHF=0.

 **********************************************************************

            Population analysis using the SCF Density.

 **********************************************************************

 Orbital symmetries:
       Occupied  (A') (A') (A') (A') (A")
       Virtual   (A') (A') (A') (A') (A') (A") (A') (A') (A") (A')
                 (A") (A') (A') (A') (A') (A') (A") (A") (A') (A')
                 (A') (A") (A') (A') (A')
 The electronic state is 1-A'.
 Alpha  occ. eigenvalues --  -19.22772  -1.08961  -0.60706  -0.45271  -0.38318
 Alpha virt. eigenvalues --    0.11369   0.18728   0.45495   0.48962   0.85183
 Alpha virt. eigenvalues --    0.85595   0.94655   1.15573   1.33506   1.40252
 Alpha virt. eigenvalues --    1.56310   1.69548   2.00027   2.11319   2.40160
 Alpha virt. eigenvalues --    2.55632   3.15582   3.24566   3.36736   3.69750
 Alpha virt. eigenvalues --    3.87706   4.88009   5.24176   5.68691  49.96268
          Condensed to atoms (all electrons):
               1          2          3
     1  O    7.875902   0.310361   0.319837
     2  H    0.310361   0.466553  -0.030052
     3  H    0.319837  -0.030052   0.457255
 Mulliken charges:
               1
     1  O   -0.506099
     2  H    0.253138
     3  H    0.252961
 Sum of Mulliken charges =   0.00000
 Mulliken charges with hydrogens summed into heavy atoms:
               1
     1  O    0.000000
 Electronic spatial extent (au):  <R**2>=             19.3586
 Charge=              0.0000 electrons
 Dipole moment (field-independent basis, Debye):
    X=             -0.0414    Y=             -2.0521    Z=              0.0000  Tot=              2.0525
 Quadrupole moment (field-independent basis, Debye-Ang):
   XX=             -3.9968   YY=             -6.1404   ZZ=             -7.2298
   XY=             -0.1413   XZ=              0.0000   YZ=              0.0000
 Traceless Quadrupole moment (field-independent basis, Debye-Ang):
   XX=              1.7922   YY=             -0.3514   ZZ=             -1.4408
   XY=             -0.1413   XZ=              0.0000   YZ=              0.0000
 Octapole moment (field-independent basis, Debye-Ang**2):
  XXX=             -0.0971  YYY=             -1.1683  ZZZ=              0.0000  XYY=              0.0832
  XXY=             -1.3490  XXZ=              0.0000  XZZ=             -0.0364  YZZ=             -0.3041
  YYZ=             -0.0000  XYZ=              0.0000
 Hexadecapole moment (field-independent basis, Debye-Ang**3):
 XXXX=             -5.8808 YYYY=             -6.3672 ZZZZ=             -5.3202 XXXY=              0.0175
 XXXZ=              0.0000 YYYX=              0.0159 YYYZ=              0.0000 ZZZX=              0.0000
 ZZZY=             -0.0000 XXYY=             -1.7256 XXZZ=             -2.2145 YYZZ=             -1.9994
 XXYZ=              0.0000 YYXZ=              0.0000 ZZXY=              0.0414
 N-N= 8.941397529656D+00 E-N=-1.990057291706D+02  KE= 7.620771202127D+01
 Symmetry A'   KE= 7.157054137244D+01
 Symmetry A"   KE= 4.637170648835D+00
 No NMR shielding tensors so no spin-rotation constants.
 Leave Link  601 at Wed Feb  8 14:42:38 2023, MaxMem=   754974720 cpu:               0.5 elap:               0.1
 (Enter /opt/cluster/programs/g16-c.01/g16/l9999.exe)
 Unable to Open any file for archive entry.
 1\1\GINC-NODE59\SP\RwB97XD\6-311G(d,p)\H2O1\BOITTIER\08-Feb-2023\0\\#P
  wB97XD/6-311g** scf(maxcycle=200)\\Gaussian input\\0,1\O,0,0.,0.11751
 ,0.\H,0,0.7973622306,-0.5007896629,0.\H,0,-0.7972967856,-0.4154054114,
 0.\\Version=ES64L-G16RevC.01\State=1-A'\HF=-76.4203014\RMSD=3.573e-09\
 Dipole=-0.0162502,-0.8073567,0.\Quadrupole=1.3324582,-0.261274,-1.0711
 843,-0.1049962,0.,0.\PG=CS [SG(H2O1)]\\@
 The archive entry for this job was punched.


 PICNIC:  A SNACK IN THE GRASS.
 Job cpu time:       0 days  0 hours  0 minutes  5.0 seconds.
 Elapsed time:       0 days  0 hours  0 minutes  1.4 seconds.
 File lengths (MBytes):  RWF=      6 Int=      0 D2E=      0 Chk=      1 Scr=      1
 Normal termination of Gaussian 16 at Wed Feb  8 14:42:38 2023.
