 Entering Gaussian System, Link 0=/opt/cluster/programs/g16-c.01/g16/g16
 Input=/scratch/boittier/jobs/tmp.7261779/gaussian_105_water_ccsdt_atz.com
 Output=/scratch/boittier/jobs/tmp.7261779/gaussian_105_water_ccsdt_atz.out
 Initial command:
 /opt/cluster/programs/g16-c.01/g16/l1.exe "/scratch/boittier/jobs/tmp.7261779/Gau-51101.inp" -scrdir="/scratch/boittier/jobs/tmp.7261779/"
 Entering Link 1 = /opt/cluster/programs/g16-c.01/g16/l1.exe PID=     51102.
  
 Copyright (c) 1988-2019, Gaussian, Inc.  All Rights Reserved.
  
 This is part of the Gaussian(R) 16 program.  It is based on
 the Gaussian(R) 09 system (copyright 2009, Gaussian, Inc.),
 the Gaussian(R) 03 system (copyright 2003, Gaussian, Inc.),
 the Gaussian(R) 98 system (copyright 1998, Gaussian, Inc.),
 the Gaussian(R) 94 system (copyright 1995, Gaussian, Inc.),
 the Gaussian 92(TM) system (copyright 1992, Gaussian, Inc.),
 the Gaussian 90(TM) system (copyright 1990, Gaussian, Inc.),
 the Gaussian 88(TM) system (copyright 1988, Gaussian, Inc.),
 the Gaussian 86(TM) system (copyright 1986, Carnegie Mellon
 University), and the Gaussian 82(TM) system (copyright 1983,
 Carnegie Mellon University). Gaussian is a federally registered
 trademark of Gaussian, Inc.
  
 This software contains proprietary and confidential information,
 including trade secrets, belonging to Gaussian, Inc.
  
 This software is provided under written license and may be
 used, copied, transmitted, or stored only in accord with that
 written license.
  
 The following legend is applicable only to US Government
 contracts under FAR:
  
                    RESTRICTED RIGHTS LEGEND
  
 Use, reproduction and disclosure by the US Government is
 subject to restrictions as set forth in subparagraphs (a)
 and (c) of the Commercial Computer Software - Restricted
 Rights clause in FAR 52.227-19.
  
 Gaussian, Inc.
 340 Quinnipiac St., Bldg. 40, Wallingford CT 06492
  
  
 ---------------------------------------------------------------
 Warning -- This program may not be used in any manner that
 competes with the business of Gaussian, Inc. or will provide
 assistance to any competitor of Gaussian, Inc.  The licensee
 of this program is prohibited from giving any competitor of
 Gaussian, Inc. access to this program.  By using this program,
 the user acknowledges that Gaussian, Inc. is engaged in the
 business of creating and licensing software in the field of
 computational chemistry and represents and warrants to the
 licensee that it is not a competitor of Gaussian, Inc. and that
 it will not use this program in any manner prohibited above.
 ---------------------------------------------------------------
  

 Cite this work as:
 Gaussian 16, Revision C.01,
 M. J. Frisch, G. W. Trucks, H. B. Schlegel, G. E. Scuseria, 
 M. A. Robb, J. R. Cheeseman, G. Scalmani, V. Barone, 
 G. A. Petersson, H. Nakatsuji, X. Li, M. Caricato, A. V. Marenich, 
 J. Bloino, B. G. Janesko, R. Gomperts, B. Mennucci, H. P. Hratchian, 
 J. V. Ortiz, A. F. Izmaylov, J. L. Sonnenberg, D. Williams-Young, 
 F. Ding, F. Lipparini, F. Egidi, J. Goings, B. Peng, A. Petrone, 
 T. Henderson, D. Ranasinghe, V. G. Zakrzewski, J. Gao, N. Rega, 
 G. Zheng, W. Liang, M. Hada, M. Ehara, K. Toyota, R. Fukuda, 
 J. Hasegawa, M. Ishida, T. Nakajima, Y. Honda, O. Kitao, H. Nakai, 
 T. Vreven, K. Throssell, J. A. Montgomery, Jr., J. E. Peralta, 
 F. Ogliaro, M. J. Bearpark, J. J. Heyd, E. N. Brothers, K. N. Kudin, 
 V. N. Staroverov, T. A. Keith, R. Kobayashi, J. Normand, 
 K. Raghavachari, A. P. Rendell, J. C. Burant, S. S. Iyengar, 
 J. Tomasi, M. Cossi, J. M. Millam, M. Klene, C. Adamo, R. Cammi, 
 J. W. Ochterski, R. L. Martin, K. Morokuma, O. Farkas, 
 J. B. Foresman, and D. J. Fox, Gaussian, Inc., Wallingford CT, 2019.
 
 ******************************************
 Gaussian 16:  ES64L-G16RevC.01  3-Jul-2019
                 8-Feb-2023 
 ******************************************
 %nproc=4
 Will use up to    4 processors via shared memory.
 %mem=5760MB
 %chk=gaussian_105_water_ccsdt_atz.chk
 ----------------------------------------
 #P CCSD(T)/aug-cc-pVTZ scf(maxcycle=200)
 ----------------------------------------
 1/38=1,172=1/1;
 2/12=2,17=6,18=5,40=1/2;
 3/5=16,6=1,7=10,11=9,25=1,30=1/1,2,3;
 4//1;
 5/5=2,7=200,38=5/2;
 8/6=4,9=120000,10=1/1,4;
 9/5=7,14=2/13;
 6/7=2,8=2,9=2,10=2/1;
 99/5=1,9=1/99;
 Leave Link    1 at Wed Feb  8 13:53:45 2023, MaxMem=   754974720 cpu:               0.2 elap:               0.1
 (Enter /opt/cluster/programs/g16-c.01/g16/l101.exe)
 --------------
 Gaussian input
 --------------
 Symbolic Z-matrix:
 Charge =  0 Multiplicity = 1
 O                     0.        0.11751   0. 
 H                     0.75785  -0.47015   0. 
 H                    -0.6783   -0.62948   0. 
 
 ITRead=  0  0  0
 MicOpt= -1 -1 -1
 NAtoms=      3 NQM=        3 NQMF=       0 NMMI=      0 NMMIF=      0
                NMic=       0 NMicF=      0.
                    Isotopes and Nuclear Properties:
 (Nuclear quadrupole moments (NQMom) in fm**2, nuclear magnetic moments (NMagM)
  in nuclear magnetons)

  Atom         1           2           3
 IAtWgt=          16           1           1
 AtmWgt=  15.9949146   1.0078250   1.0078250
 NucSpn=           0           1           1
 AtZEff=  -0.0000000  -0.0000000  -0.0000000
 NQMom=    0.0000000   0.0000000   0.0000000
 NMagM=    0.0000000   2.7928460   2.7928460
 AtZNuc=   8.0000000   1.0000000   1.0000000
 Leave Link  101 at Wed Feb  8 13:53:46 2023, MaxMem=   754974720 cpu:               1.0 elap:               0.5
 (Enter /opt/cluster/programs/g16-c.01/g16/l202.exe)
                          Input orientation:                          
 ---------------------------------------------------------------------
 Center     Atomic      Atomic             Coordinates (Angstroms)
 Number     Number       Type             X           Y           Z
 ---------------------------------------------------------------------
      1          8           0        0.000000    0.117510    0.000000
      2          1           0        0.757850   -0.470150    0.000000
      3          1           0       -0.678302   -0.629475    0.000000
 ---------------------------------------------------------------------
                    Distance matrix (angstroms):
                    1          2          3
     1  O    0.000000
     2  H    0.959000   0.000000
     3  H    1.009000   1.444963   0.000000
 Stoichiometry    H2O
 Framework group  CS[SG(H2O)]
 Deg. of freedom     3
 Full point group                 CS      NOp   2
 Largest Abelian subgroup         CS      NOp   2
 Largest concise Abelian subgroup C1      NOp   1
                         Standard orientation:                         
 ---------------------------------------------------------------------
 Center     Atomic      Atomic             Coordinates (Angstroms)
 Number     Number       Type             X           Y           Z
 ---------------------------------------------------------------------
      1          8           0        0.000000    0.133701    0.000000
      2          1           0        0.721544   -0.498007    0.000000
      3          1           0       -0.721544   -0.571604    0.000000
 ---------------------------------------------------------------------
 Rotational constants (GHZ):         638.4243582         476.5438886         272.8662696
 Leave Link  202 at Wed Feb  8 13:53:46 2023, MaxMem=   754974720 cpu:               0.1 elap:               0.1
 (Enter /opt/cluster/programs/g16-c.01/g16/l301.exe)
 Standard basis: Aug-CC-pVTZ (5D, 7F)
 Ernie: Thresh=  0.10000D-02 Tol=  0.10000D-05 Strict=F.
 Ernie:  3 primitive shells out of 52 were deleted.
 There are    73 symmetry adapted cartesian basis functions of A'  symmetry.
 There are    32 symmetry adapted cartesian basis functions of A"  symmetry.
 There are    62 symmetry adapted basis functions of A'  symmetry.
 There are    30 symmetry adapted basis functions of A"  symmetry.
    92 basis functions,   126 primitive gaussians,   105 cartesian basis functions
     5 alpha electrons        5 beta electrons
       nuclear repulsion energy         8.9762872641 Hartrees.
 IExCor=    0 DFT=F Ex=HF Corr=None ExCW=0 ScaHFX=  1.000000
 ScaDFX=  1.000000  1.000000  1.000000  1.000000 ScalE2=  1.000000  1.000000
 IRadAn=      5 IRanWt=     -1 IRanGd=            0 ICorTp=0 IEmpDi=  4
 NAtoms=    3 NActive=    3 NUniq=    3 SFac= 1.00D+00 NAtFMM=   60 NAOKFM=F Big=F
 Integral buffers will be    131072 words long.
 Raffenetti 1 integral format.
 Two-electron integral symmetry is turned on.
 Leave Link  301 at Wed Feb  8 13:53:46 2023, MaxMem=   754974720 cpu:               0.1 elap:               0.1
 (Enter /opt/cluster/programs/g16-c.01/g16/l302.exe)
 NPDir=0 NMtPBC=     1 NCelOv=     1 NCel=       1 NClECP=     1 NCelD=      1
         NCelK=      1 NCelE2=     1 NClLst=     1 CellRange=     0.0.
 One-electron integrals computed using PRISM.
 One-electron integral symmetry used in STVInt
 NBasis=    92 RedAO= T EigKep=  4.05D-04  NBF=    62    30
 NBsUse=    92 1.00D-06 EigRej= -1.00D+00 NBFU=    62    30
 Leave Link  302 at Wed Feb  8 13:53:47 2023, MaxMem=   754974720 cpu:               3.5 elap:               1.7
 (Enter /opt/cluster/programs/g16-c.01/g16/l303.exe)
 DipDrv:  MaxL=1.
 Leave Link  303 at Wed Feb  8 13:53:48 2023, MaxMem=   754974720 cpu:               0.2 elap:               0.1
 (Enter /opt/cluster/programs/g16-c.01/g16/l401.exe)
 ExpMin= 2.53D-02 ExpMax= 1.53D+04 ExpMxC= 5.22D+02 IAcc=3 IRadAn=         5 AccDes= 0.00D+00
 Harris functional with IExCor=  205 and IRadAn=       5 diagonalized for initial guess.
 HarFok:  IExCor=  205 AccDes= 0.00D+00 IRadAn=         5 IDoV= 1 UseB2=F ITyADJ=14
 ICtDFT=  3500011 ScaDFX=  1.000000  1.000000  1.000000  1.000000
 FoFCou: FMM=F IPFlag=           0 FMFlag=      100000 FMFlg1=           0
         NFxFlg=           0 DoJE=T BraDBF=F KetDBF=T FulRan=T
         wScrn=  0.000000 ICntrl=       500 IOpCl=  0 I1Cent=   200000004 NGrid=           0
         NMat0=    1 NMatS0=      1 NMatT0=    0 NMatD0=    1 NMtDS0=    0 NMtDT0=    0
 Petite list used in FoFCou.
 Harris En= -76.1467957143481    
 JPrj=0 DoOrth=F DoCkMO=F.
 Initial guess orbital symmetries:
       Occupied  (A') (A') (A') (A') (A")
       Virtual   (A') (A') (A') (A") (A') (A') (A') (A') (A") (A")
                 (A') (A') (A') (A') (A') (A') (A') (A") (A") (A')
                 (A") (A') (A') (A") (A') (A") (A') (A') (A') (A")
                 (A') (A') (A") (A') (A') (A") (A") (A') (A') (A')
                 (A') (A") (A") (A') (A') (A") (A') (A') (A') (A")
                 (A') (A') (A") (A') (A') (A") (A') (A") (A") (A')
                 (A') (A") (A") (A') (A') (A') (A") (A') (A') (A')
                 (A") (A') (A') (A') (A") (A') (A") (A') (A") (A")
                 (A") (A') (A') (A') (A') (A') (A')
 The electronic state of the initial guess is 1-A'.
 Leave Link  401 at Wed Feb  8 13:53:49 2023, MaxMem=   754974720 cpu:               2.3 elap:               1.1
 (Enter /opt/cluster/programs/g16-c.01/g16/l502.exe)
 Keep R1 ints in memory in symmetry-blocked form, NReq=13818732.
 FoFCou: FMM=F IPFlag=           0 FMFlag=           0 FMFlg1=           0
         NFxFlg=           0 DoJE=F BraDBF=F KetDBF=F FulRan=T
         wScrn=  0.000000 ICntrl=       600 IOpCl=  0 I1Cent=           0 NGrid=           0
         NMat0=    1 NMatS0=   4278 NMatT0=    0 NMatD0=    1 NMtDS0=    0 NMtDT0=    0
 Petite list used in FoFCou.
 Closed shell SCF:
 Using DIIS extrapolation, IDIIS=  1040.
 NGot=   754974720 LenX=   750285684 LenY=   750274218
 Requested convergence on RMS density matrix=1.00D-08 within 200 cycles.
 Requested convergence on MAX density matrix=1.00D-06.
 Requested convergence on             energy=1.00D-06.
 No special actions if energy rises.

 Cycle   1  Pass 1  IDiag  1:
 E= -75.9666616797997    
 DIIS: error= 5.68D-02 at cycle   1 NSaved=   1.
 NSaved= 1 IEnMin= 1 EnMin= -75.9666616797997     IErMin= 1 ErrMin= 5.68D-02
 ErrMax= 5.68D-02  0.00D+00 EMaxC= 1.00D-01 BMatC= 1.97D-01 BMatP= 1.97D-01
 IDIUse=3 WtCom= 4.32D-01 WtEn= 5.68D-01
 Coeff-Com:  0.100D+01
 Coeff-En:   0.100D+01
 Coeff:      0.100D+01
 Gap=     0.455 Goal=   None    Shift=    0.000
 GapD=    0.455 DampG=2.000 DampE=0.500 DampFc=1.0000 IDamp=-1.
 RMSDP=2.14D-03 MaxDP=4.73D-02              OVMax= 1.28D-01

 Cycle   2  Pass 1  IDiag  1:
 E= -76.0153786312408     Delta-E=       -0.048716951441 Rises=F Damp=F
 DIIS: error= 3.93D-02 at cycle   2 NSaved=   2.
 NSaved= 2 IEnMin= 2 EnMin= -76.0153786312408     IErMin= 2 ErrMin= 3.93D-02
 ErrMax= 3.93D-02  0.00D+00 EMaxC= 1.00D-01 BMatC= 6.06D-02 BMatP= 1.97D-01
 IDIUse=3 WtCom= 6.07D-01 WtEn= 3.93D-01
 Coeff-Com:  0.329D+00 0.671D+00
 Coeff-En:   0.225D+00 0.775D+00
 Coeff:      0.288D+00 0.712D+00
 Gap=     0.565 Goal=   None    Shift=    0.000
 RMSDP=1.33D-03 MaxDP=3.60D-02 DE=-4.87D-02 OVMax= 6.60D-02

 Cycle   3  Pass 1  IDiag  1:
 E= -76.0517338684382     Delta-E=       -0.036355237197 Rises=F Damp=F
 DIIS: error= 7.83D-03 at cycle   3 NSaved=   3.
 NSaved= 3 IEnMin= 3 EnMin= -76.0517338684382     IErMin= 3 ErrMin= 7.83D-03
 ErrMax= 7.83D-03  0.00D+00 EMaxC= 1.00D-01 BMatC= 2.82D-03 BMatP= 6.06D-02
 IDIUse=3 WtCom= 9.22D-01 WtEn= 7.83D-02
 Coeff-Com: -0.317D-01 0.146D+00 0.886D+00
 Coeff-En:   0.000D+00 0.000D+00 0.100D+01
 Coeff:     -0.292D-01 0.134D+00 0.895D+00
 Gap=     0.537 Goal=   None    Shift=    0.000
 RMSDP=2.22D-04 MaxDP=4.24D-03 DE=-3.64D-02 OVMax= 1.33D-02

 Cycle   4  Pass 1  IDiag  1:
 E= -76.0535401245821     Delta-E=       -0.001806256144 Rises=F Damp=F
 DIIS: error= 7.39D-04 at cycle   4 NSaved=   4.
 NSaved= 4 IEnMin= 4 EnMin= -76.0535401245821     IErMin= 4 ErrMin= 7.39D-04
 ErrMax= 7.39D-04  0.00D+00 EMaxC= 1.00D-01 BMatC= 1.57D-05 BMatP= 2.82D-03
 IDIUse=3 WtCom= 9.93D-01 WtEn= 7.39D-03
 Coeff-Com:  0.758D-02-0.574D-01-0.260D+00 0.131D+01
 Coeff-En:   0.000D+00 0.000D+00 0.000D+00 0.100D+01
 Coeff:      0.752D-02-0.570D-01-0.259D+00 0.131D+01
 Gap=     0.539 Goal=   None    Shift=    0.000
 RMSDP=4.13D-05 MaxDP=7.58D-04 DE=-1.81D-03 OVMax= 2.44D-03

 Cycle   5  Pass 1  IDiag  1:
 E= -76.0535684369560     Delta-E=       -0.000028312374 Rises=F Damp=F
 DIIS: error= 2.09D-04 at cycle   5 NSaved=   5.
 NSaved= 5 IEnMin= 5 EnMin= -76.0535684369560     IErMin= 5 ErrMin= 2.09D-04
 ErrMax= 2.09D-04  0.00D+00 EMaxC= 1.00D-01 BMatC= 7.95D-07 BMatP= 1.57D-05
 IDIUse=3 WtCom= 9.98D-01 WtEn= 2.09D-03
 Coeff-Com:  0.254D-03 0.226D-02 0.823D-02-0.274D+00 0.126D+01
 Coeff-En:   0.000D+00 0.000D+00 0.000D+00 0.000D+00 0.100D+01
 Coeff:      0.254D-03 0.226D-02 0.821D-02-0.274D+00 0.126D+01
 Gap=     0.539 Goal=   None    Shift=    0.000
 RMSDP=1.17D-05 MaxDP=2.69D-04 DE=-2.83D-05 OVMax= 8.24D-04

 Cycle   6  Pass 1  IDiag  1:
 E= -76.0535703965103     Delta-E=       -0.000001959554 Rises=F Damp=F
 DIIS: error= 3.02D-05 at cycle   6 NSaved=   6.
 NSaved= 6 IEnMin= 6 EnMin= -76.0535703965103     IErMin= 6 ErrMin= 3.02D-05
 ErrMax= 3.02D-05  0.00D+00 EMaxC= 1.00D-01 BMatC= 2.50D-08 BMatP= 7.95D-07
 IDIUse=1 WtCom= 1.00D+00 WtEn= 0.00D+00
 Coeff-Com: -0.301D-03 0.142D-02 0.586D-02 0.192D-01-0.336D+00 0.131D+01
 Coeff:     -0.301D-03 0.142D-02 0.586D-02 0.192D-01-0.336D+00 0.131D+01
 Gap=     0.540 Goal=   None    Shift=    0.000
 RMSDP=2.46D-06 MaxDP=6.28D-05 DE=-1.96D-06 OVMax= 1.74D-04

 Cycle   7  Pass 1  IDiag  1:
 E= -76.0535704699343     Delta-E=       -0.000000073424 Rises=F Damp=F
 DIIS: error= 4.45D-06 at cycle   7 NSaved=   7.
 NSaved= 7 IEnMin= 7 EnMin= -76.0535704699343     IErMin= 7 ErrMin= 4.45D-06
 ErrMax= 4.45D-06  0.00D+00 EMaxC= 1.00D-01 BMatC= 9.91D-10 BMatP= 2.50D-08
 IDIUse=1 WtCom= 1.00D+00 WtEn= 0.00D+00
 Coeff-Com:  0.268D-04-0.323D-03-0.147D-02 0.151D-01-0.308D-01-0.118D+00
 Coeff-Com:  0.114D+01
 Coeff:      0.268D-04-0.323D-03-0.147D-02 0.151D-01-0.308D-01-0.118D+00
 Coeff:      0.114D+01
 Gap=     0.540 Goal=   None    Shift=    0.000
 RMSDP=3.53D-07 MaxDP=6.50D-06 DE=-7.34D-08 OVMax= 2.47D-05

 Cycle   8  Pass 1  IDiag  1:
 E= -76.0535704718332     Delta-E=       -0.000000001899 Rises=F Damp=F
 DIIS: error= 8.97D-07 at cycle   8 NSaved=   8.
 NSaved= 8 IEnMin= 8 EnMin= -76.0535704718332     IErMin= 8 ErrMin= 8.97D-07
 ErrMax= 8.97D-07  0.00D+00 EMaxC= 1.00D-01 BMatC= 4.58D-11 BMatP= 9.91D-10
 IDIUse=1 WtCom= 1.00D+00 WtEn= 0.00D+00
 Coeff-Com:  0.717D-05 0.992D-05 0.118D-03-0.446D-02 0.210D-01-0.245D-01
 Coeff-Com: -0.308D+00 0.132D+01
 Coeff:      0.717D-05 0.992D-05 0.118D-03-0.446D-02 0.210D-01-0.245D-01
 Coeff:     -0.308D+00 0.132D+01
 Gap=     0.540 Goal=   None    Shift=    0.000
 RMSDP=1.09D-07 MaxDP=2.38D-06 DE=-1.90D-09 OVMax= 6.45D-06

 Cycle   9  Pass 1  IDiag  1:
 E= -76.0535704719496     Delta-E=       -0.000000000116 Rises=F Damp=F
 DIIS: error= 1.75D-07 at cycle   9 NSaved=   9.
 NSaved= 9 IEnMin= 9 EnMin= -76.0535704719496     IErMin= 9 ErrMin= 1.75D-07
 ErrMax= 1.75D-07  0.00D+00 EMaxC= 1.00D-01 BMatC= 1.09D-12 BMatP= 4.58D-11
 IDIUse=1 WtCom= 1.00D+00 WtEn= 0.00D+00
 Coeff-Com: -0.216D-05 0.372D-05-0.721D-05 0.812D-03-0.420D-02 0.685D-02
 Coeff-Com:  0.623D-01-0.369D+00 0.130D+01
 Coeff:     -0.216D-05 0.372D-05-0.721D-05 0.812D-03-0.420D-02 0.685D-02
 Coeff:      0.623D-01-0.369D+00 0.130D+01
 Gap=     0.540 Goal=   None    Shift=    0.000
 RMSDP=1.91D-08 MaxDP=3.87D-07 DE=-1.16D-10 OVMax= 9.42D-07

 Cycle  10  Pass 1  IDiag  1:
 E= -76.0535704719524     Delta-E=       -0.000000000003 Rises=F Damp=F
 DIIS: error= 4.00D-08 at cycle  10 NSaved=  10.
 NSaved=10 IEnMin=10 EnMin= -76.0535704719524     IErMin=10 ErrMin= 4.00D-08
 ErrMax= 4.00D-08  0.00D+00 EMaxC= 1.00D-01 BMatC= 5.08D-14 BMatP= 1.09D-12
 IDIUse=1 WtCom= 1.00D+00 WtEn= 0.00D+00
 Coeff-Com:  0.347D-06-0.143D-05-0.255D-05-0.667D-04 0.430D-03-0.115D-02
 Coeff-Com: -0.440D-02 0.476D-01-0.361D+00 0.132D+01
 Coeff:      0.347D-06-0.143D-05-0.255D-05-0.667D-04 0.430D-03-0.115D-02
 Coeff:     -0.440D-02 0.476D-01-0.361D+00 0.132D+01
 Gap=     0.540 Goal=   None    Shift=    0.000
 RMSDP=4.63D-09 MaxDP=1.09D-07 DE=-2.83D-12 OVMax= 2.60D-07

 SCF Done:  E(RHF) =  -76.0535704720     A.U. after   10 cycles
            NFock= 10  Conv=0.46D-08     -V/T= 2.0023
 KE= 7.587835212226D+01 PE=-1.985012385831D+02 EE= 3.759302872472D+01
 Leave Link  502 at Wed Feb  8 13:53:52 2023, MaxMem=   754974720 cpu:               8.6 elap:               2.9
 (Enter /opt/cluster/programs/g16-c.01/g16/l801.exe)
 Windowed orbitals will be sorted by symmetry type.
 ExpMin= 2.53D-02 ExpMax= 1.53D+04 ExpMxC= 5.22D+02 IAcc=3 IRadAn=         5 AccDes= 0.00D+00
 HarFok:  IExCor=  205 AccDes= 0.00D+00 IRadAn=         5 IDoV=-2 UseB2=F ITyADJ=14
 ICtDFT= 12500011 ScaDFX=  1.000000  1.000000  1.000000  1.000000
 Largest valence mixing into a core orbital is  1.13D-04
 Largest core mixing into a valence orbital is  1.76D-05
 Range of M.O.s used for correlation:     2    92
 NBasis=    92 NAE=     5 NBE=     5 NFC=     1 NFV=     0
 NROrb=     91 NOA=     4 NOB=     4 NVA=    87 NVB=    87

 **** Warning!!: The largest alpha MO coefficient is  0.14632149D+02

 Leave Link  801 at Wed Feb  8 13:53:52 2023, MaxMem=   754974720 cpu:               0.6 elap:               0.3
 (Enter /opt/cluster/programs/g16-c.01/g16/l804.exe)
 Closed-shell transformation, MDV=   754974720 ITran=4 ISComp=2.
 Unit  1 TFree=        277501 TCopy=        343607.
 Semi-Direct transformation.
 ModeAB=           2 MOrb=             4 LenV=     754586778
 LASXX=       736380 LTotXX=      736380 LenRXX=      736380
 LTotAB=      763744 MaxLAS=     2025660 LenRXY=     2025660
 NonZer=     2107560 LenScr=     3929600 LnRSAI=           0
 LnScr1=           0 LExtra=           0 Total=      6691640
 MaxDsk=          -1 SrtSym=           F ITran=            4
 DoSDTr:  NPSUse=  4
 JobTyp=0 Pass  1:  I=   1 to   4.
 (rs|ai) integrals will be sorted in core.
 Complete sort for first half transformation.
 First half transformation complete.
 Complete sort for second half transformation.
 Second half transformation complete.
 Spin components of T(2) and E(2):
     alpha-alpha T2 =       0.8432187775D-02 E2=     -0.3297752453D-01
     alpha-beta  T2 =       0.4905563463D-01 E2=     -0.2056199426D+00
     beta-beta   T2 =       0.8432187775D-02 E2=     -0.3297752453D-01
 ANorm=    0.1032434022D+01
 E2 =    -0.2715749916D+00 EUMP2 =    -0.76325145463573D+02
 Leave Link  804 at Wed Feb  8 13:54:01 2023, MaxMem=   754974720 cpu:              17.6 elap:               8.8
 (Enter /opt/cluster/programs/g16-c.01/g16/l913.exe)
 CIDS:  MDV=   754974720.
 Frozen-core window:  NFC=   1 NFV=   0.
 IFCWin=0 IBDFC=1 NFBD=     0     0 NFCmp=     0     0 NFFFC=     0     0
 Using DD3R+UMP44R for 1st iteration.
 Using DD4RQ for 2nd and later iterations.
 Keep R2 and R3 ints in memory in symmetry-blocked form, NReq=13979827.
 FoFCou: FMM=F IPFlag=           0 FMFlag=           0 FMFlg1=           0
         NFxFlg=           0 DoJE=F BraDBF=F KetDBF=F FulRan=T
         wScrn=  0.000000 ICntrl=       600 IOpCl=  0 I1Cent=           0 NGrid=           0
         NMat0=    1 NMatS0=   4278 NMatT0=    0 NMatD0=    1 NMtDS0=    0 NMtDT0=    0
 Petite list used in FoFCou.
 CIDS: In Core Option IDoMem=           1.
 CCSD(T)
 =======
 Iterations=  50 Convergence= 0.100D-06
 Produce multiple copies of IABC intergrals
 Iteration Nr.   1
 **********************
 DD1Dir will call FoFMem   1 times, MxPair=        20
 NAB=    10 NAA=     0 NBB=     0.
 MP4(R+Q)=  0.42253591D-02
 Maximum subspace dimension=  5
 A-vector RMS=  3.0013134D-03 Max=  1.2868470D-02 conv= 1.00D-05.
 RLE energy=       -0.2692565445
 E3=       -0.19319551D-02        EUMP3=      -0.76327077419D+02
 E4(DQ)=   -0.79521220D-03        UMP4(DQ)=   -0.76327872631D+02
 E4(SDQ)=  -0.28681457D-02        UMP4(SDQ)=  -0.76329945564D+02
 VARIATIONAL ENERGIES WITH THE FIRST-ORDER WAVEFUNCTION:
 DE(Corr)= -0.26923659     E(Corr)=     -76.322807061    
 NORM(A)=   0.10320691D+01
 Iteration Nr.   2
 **********************
 DD1Dir will call FoFMem   1 times, MxPair=        20
 NAB=    10 NAA=     0 NBB=     0.
 A-vector RMS=  3.2845228D-04 Max=  2.3160353D-03 conv= 1.00D-05.
 RLE energy=       -0.2754565105
 DE(Corr)= -0.27505694     E(CORR)=     -76.328627416     Delta=-5.82D-03
 NORM(A)=   0.10343955D+01
 Iteration Nr.   3
 **********************
 DD1Dir will call FoFMem   1 times, MxPair=        20
 NAB=    10 NAA=     0 NBB=     0.
 A-vector RMS=  4.2414158D-04 Max=  2.3734022D-03 conv= 1.00D-05.
 RLE energy=       -0.2758047427
 DE(Corr)= -0.27538469     E(CORR)=     -76.328955163     Delta=-3.28D-04
 NORM(A)=   0.10348765D+01
 Iteration Nr.   4
 **********************
 DD1Dir will call FoFMem   1 times, MxPair=        20
 NAB=    10 NAA=     0 NBB=     0.
 A-vector RMS=  6.8477306D-05 Max=  3.9526610D-04 conv= 1.00D-05.
 RLE energy=       -0.2758436462
 DE(Corr)= -0.27581167     E(CORR)=     -76.329382138     Delta=-4.27D-04
 NORM(A)=   0.10350040D+01
 Iteration Nr.   5
 **********************
 DD1Dir will call FoFMem   1 times, MxPair=        20
 NAB=    10 NAA=     0 NBB=     0.
 A-vector RMS=  3.2085151D-05 Max=  2.0281257D-04 conv= 1.00D-05.
 RLE energy=       -0.2758577211
 DE(Corr)= -0.27585149     E(CORR)=     -76.329421959     Delta=-3.98D-05
 NORM(A)=   0.10350295D+01
 Iteration Nr.   6
 **********************
 DD1Dir will call FoFMem   1 times, MxPair=        20
 NAB=    10 NAA=     0 NBB=     0.
 A-vector RMS=  7.5337584D-06 Max=  4.4250514D-05 conv= 1.00D-05.
 RLE energy=       -0.2758536901
 DE(Corr)= -0.27585468     E(CORR)=     -76.329425156     Delta=-3.20D-06
 NORM(A)=   0.10350315D+01
 Iteration Nr.   7
 **********************
 DD1Dir will call FoFMem   1 times, MxPair=        20
 NAB=    10 NAA=     0 NBB=     0.
 A-vector RMS=  2.5096113D-06 Max=  1.1517036D-05 conv= 1.00D-05.
 RLE energy=       -0.2758537460
 DE(Corr)= -0.27585471     E(CORR)=     -76.329425178     Delta=-2.20D-08
 NORM(A)=   0.10350321D+01
 Iteration Nr.   8
 **********************
 DD1Dir will call FoFMem   1 times, MxPair=        20
 NAB=    10 NAA=     0 NBB=     0.
 A-vector RMS=  9.9150102D-07 Max=  5.8946630D-06 conv= 1.00D-05.
 RLE energy=       -0.2758543044
 DE(Corr)= -0.27585442     E(CORR)=     -76.329424895     Delta= 2.83D-07
 NORM(A)=   0.10350325D+01
 Iteration Nr.   9
 **********************
 DD1Dir will call FoFMem   1 times, MxPair=        20
 NAB=    10 NAA=     0 NBB=     0.
 A-vector RMS=  2.2672252D-07 Max=  1.1377251D-06 conv= 1.00D-05.
 RLE energy=       -0.2758544072
 DE(Corr)= -0.27585443     E(CORR)=     -76.329424899     Delta=-4.14D-09
 NORM(A)=   0.10350327D+01
 CI/CC converged in    9 iterations to DelEn=-4.14D-09 Conv= 1.00D-07 ErrA1= 2.27D-07 Conv= 1.00D-05
 Wavefunction amplitudes converged. E(Corr)=     -76.329424899    
 Largest amplitude= 2.41D-02
 IPart=  2 IA=    6   11.23% done.
 IPart=  4 IA=   11   21.79% done.
 IPart=  1 IA=   16   31.68% done.
 IPart=  2 IA=   21   40.90% done.
 IPart=  1 IA=   27   51.08% done.
 IPart=  3 IA=   33   60.30% done.
 IPart=  3 IA=   41   71.10% done.
 IPart=  2 IA=   49   80.19% done.
 IPart=  4 IA=   61   90.62% done.
 Time for triples=        6.39 seconds.
 T4(CCSD)= -0.93495190D-02
 T5(CCSD)=  0.35139607D-03
 CCSD(T)= -0.76338423022D+02
 Discarding MO integrals.
 Leave Link  913 at Wed Feb  8 13:54:04 2023, MaxMem=   754974720 cpu:              13.0 elap:               3.6
 (Enter /opt/cluster/programs/g16-c.01/g16/l601.exe)
 Copying SCF densities to generalized density rwf, IOpCl= 0 IROHF=0.

 **********************************************************************

            Population analysis using the SCF Density.

 **********************************************************************

 Orbital symmetries:
       Occupied  (A') (A') (A') (A') (A")
       Virtual   (A') (A') (A') (A") (A') (A') (A') (A') (A") (A")
                 (A') (A') (A') (A') (A') (A') (A') (A") (A") (A')
                 (A") (A') (A') (A") (A") (A') (A') (A') (A') (A")
                 (A') (A") (A') (A') (A') (A") (A") (A') (A') (A')
                 (A') (A") (A") (A') (A') (A") (A') (A') (A') (A")
                 (A') (A') (A") (A') (A') (A') (A") (A") (A") (A')
                 (A') (A") (A") (A') (A') (A') (A") (A') (A') (A')
                 (A") (A') (A') (A') (A") (A') (A") (A') (A") (A")
                 (A") (A') (A') (A') (A') (A') (A')
 The electronic state is 1-A'.
 Alpha  occ. eigenvalues --  -20.57599  -1.34800  -0.68406  -0.59913  -0.51125
 Alpha virt. eigenvalues --    0.02834   0.04824   0.13400   0.16127   0.17587
 Alpha virt. eigenvalues --    0.18565   0.22154   0.24522   0.26900   0.28941
 Alpha virt. eigenvalues --    0.30438   0.36669   0.42986   0.46128   0.59232
 Alpha virt. eigenvalues --    0.66580   0.69917   0.72876   0.73149   0.83402
 Alpha virt. eigenvalues --    0.85699   0.89984   0.90616   0.90792   0.92292
 Alpha virt. eigenvalues --    0.93812   0.94329   1.00758   1.03780   1.07508
 Alpha virt. eigenvalues --    1.10144   1.17824   1.18947   1.27422   1.46729
 Alpha virt. eigenvalues --    1.50085   1.54881   1.82770   1.87314   1.92941
 Alpha virt. eigenvalues --    2.12528   2.26451   2.31132   2.33381   2.41219
 Alpha virt. eigenvalues --    2.41641   2.43905   2.50940   2.68393   2.70172
 Alpha virt. eigenvalues --    2.73484   2.80421   2.86678   3.57195   3.66008
 Alpha virt. eigenvalues --    4.03460   4.04983   4.06224   4.14295   4.26670
 Alpha virt. eigenvalues --    4.34763   4.36675   4.39814   4.54233   4.71230
 Alpha virt. eigenvalues --    4.81193   5.05467   5.11136   5.19124   5.31869
 Alpha virt. eigenvalues --    5.49496   5.53738   6.23631   6.47021   6.69361
 Alpha virt. eigenvalues --    6.95581   7.07411   7.10375   7.24968   7.29746
 Alpha virt. eigenvalues --    7.32756   7.40085   7.46141   7.74308   7.92645
 Alpha virt. eigenvalues --    8.73416  15.09838
          Condensed to atoms (all electrons):
               1          2          3
     1  O    7.960450   0.256456   0.258985
     2  H    0.256456   0.490305   0.033084
     3  H    0.258985   0.033084   0.452194
 Mulliken charges:
               1
     1  O   -0.475891
     2  H    0.220154
     3  H    0.255737
 Sum of Mulliken charges =  -0.00000
 Mulliken charges with hydrogens summed into heavy atoms:
               1
     1  O   -0.000000
 Electronic spatial extent (au):  <R**2>=             19.8052
 Charge=             -0.0000 electrons
 Dipole moment (field-independent basis, Debye):
    X=              0.0280    Y=             -2.1651    Z=              0.0000  Tot=              2.1653
 Quadrupole moment (field-independent basis, Debye-Ang):
   XX=             -4.6548   YY=             -5.9313   ZZ=             -7.6038
   XY=              0.1068   XZ=              0.0000   YZ=              0.0000
 Traceless Quadrupole moment (field-independent basis, Debye-Ang):
   XX=              1.4085   YY=              0.1320   ZZ=             -1.5405
   XY=              0.1068   XZ=              0.0000   YZ=              0.0000
 Octapole moment (field-independent basis, Debye-Ang**2):
  XXX=              0.0821  YYY=             -1.3460  ZZZ=              0.0000  XYY=             -0.0933
  XXY=             -1.4183  XXZ=              0.0000  XZZ=              0.0268  YZZ=             -0.2549
  YYZ=              0.0000  XYZ=              0.0000
 Hexadecapole moment (field-independent basis, Debye-Ang**3):
 XXXX=             -6.4585 YYYY=             -7.4673 ZZZZ=             -6.7641 XXXY=             -0.0356
 XXXZ=              0.0000 YYYX=              0.0128 YYYZ=              0.0000 ZZZX=              0.0000
 ZZZY=              0.0000 XXYY=             -1.8152 XXZZ=             -2.4633 YYZZ=             -2.4581
 XXYZ=              0.0000 YYXZ=              0.0000 ZZXY=             -0.0363
 N-N= 8.976287264149D+00 E-N=-1.985012384715D+02  KE= 7.587835212226D+01
 Symmetry A'   KE= 7.139706174483D+01
 Symmetry A"   KE= 4.481290377429D+00
 Leave Link  601 at Wed Feb  8 13:54:05 2023, MaxMem=   754974720 cpu:               0.7 elap:               0.4
 (Enter /opt/cluster/programs/g16-c.01/g16/l9999.exe)
 Unable to Open any file for archive entry.
 1\1\GINC-NODE58\SP\RCCSD(T)-FC\Aug-CC-pVTZ\H2O1\BOITTIER\08-Feb-2023\0
 \\#P CCSD(T)/aug-cc-pVTZ scf(maxcycle=200)\\Gaussian input\\0,1\O,0,0.
 ,0.11751,0.\H,0,0.7578497316,-0.4701504329,0.\H,0,-0.6783023618,-0.629
 4752114,0.\\Version=ES64L-G16RevC.01\State=1-A'\HF=-76.0535705\MP2=-76
 .3251455\MP3=-76.3270774\MP4D=-76.332098\MP4DQ=-76.3278726\MP4SDQ=-76.
 3299456\CCSD=-76.3294249\CCSD(T)=-76.338423\RMSD=4.626e-09\PG=CS [SG(H
 2O1)]\\@
 The archive entry for this job was punched.


 There was a great rattling of the words for the fewness of ideas.
                   -- Charles Baxter in Gryphon
 Job cpu time:       0 days  0 hours  0 minutes 48.0 seconds.
 Elapsed time:       0 days  0 hours  0 minutes 19.6 seconds.
 File lengths (MBytes):  RWF=     75 Int=      0 D2E=      0 Chk=      2 Scr=      1
 Normal termination of Gaussian 16 at Wed Feb  8 13:54:05 2023.
