 Entering Gaussian System, Link 0=/opt/cluster/programs/g16-c.01/g16/g16
 Input=/scratch/boittier/jobs/tmp.7262145/gaussian_13_water_ccsdt_adz.com
 Output=/scratch/boittier/jobs/tmp.7262145/gaussian_13_water_ccsdt_adz.out
 Initial command:
 /opt/cluster/programs/g16-c.01/g16/l1.exe "/scratch/boittier/jobs/tmp.7262145/Gau-47081.inp" -scrdir="/scratch/boittier/jobs/tmp.7262145/"
 Entering Link 1 = /opt/cluster/programs/g16-c.01/g16/l1.exe PID=     47082.
  
 Copyright (c) 1988-2019, Gaussian, Inc.  All Rights Reserved.
  
 This is part of the Gaussian(R) 16 program.  It is based on
 the Gaussian(R) 09 system (copyright 2009, Gaussian, Inc.),
 the Gaussian(R) 03 system (copyright 2003, Gaussian, Inc.),
 the Gaussian(R) 98 system (copyright 1998, Gaussian, Inc.),
 the Gaussian(R) 94 system (copyright 1995, Gaussian, Inc.),
 the Gaussian 92(TM) system (copyright 1992, Gaussian, Inc.),
 the Gaussian 90(TM) system (copyright 1990, Gaussian, Inc.),
 the Gaussian 88(TM) system (copyright 1988, Gaussian, Inc.),
 the Gaussian 86(TM) system (copyright 1986, Carnegie Mellon
 University), and the Gaussian 82(TM) system (copyright 1983,
 Carnegie Mellon University). Gaussian is a federally registered
 trademark of Gaussian, Inc.
  
 This software contains proprietary and confidential information,
 including trade secrets, belonging to Gaussian, Inc.
  
 This software is provided under written license and may be
 used, copied, transmitted, or stored only in accord with that
 written license.
  
 The following legend is applicable only to US Government
 contracts under FAR:
  
                    RESTRICTED RIGHTS LEGEND
  
 Use, reproduction and disclosure by the US Government is
 subject to restrictions as set forth in subparagraphs (a)
 and (c) of the Commercial Computer Software - Restricted
 Rights clause in FAR 52.227-19.
  
 Gaussian, Inc.
 340 Quinnipiac St., Bldg. 40, Wallingford CT 06492
  
  
 ---------------------------------------------------------------
 Warning -- This program may not be used in any manner that
 competes with the business of Gaussian, Inc. or will provide
 assistance to any competitor of Gaussian, Inc.  The licensee
 of this program is prohibited from giving any competitor of
 Gaussian, Inc. access to this program.  By using this program,
 the user acknowledges that Gaussian, Inc. is engaged in the
 business of creating and licensing software in the field of
 computational chemistry and represents and warrants to the
 licensee that it is not a competitor of Gaussian, Inc. and that
 it will not use this program in any manner prohibited above.
 ---------------------------------------------------------------
  

 Cite this work as:
 Gaussian 16, Revision C.01,
 M. J. Frisch, G. W. Trucks, H. B. Schlegel, G. E. Scuseria, 
 M. A. Robb, J. R. Cheeseman, G. Scalmani, V. Barone, 
 G. A. Petersson, H. Nakatsuji, X. Li, M. Caricato, A. V. Marenich, 
 J. Bloino, B. G. Janesko, R. Gomperts, B. Mennucci, H. P. Hratchian, 
 J. V. Ortiz, A. F. Izmaylov, J. L. Sonnenberg, D. Williams-Young, 
 F. Ding, F. Lipparini, F. Egidi, J. Goings, B. Peng, A. Petrone, 
 T. Henderson, D. Ranasinghe, V. G. Zakrzewski, J. Gao, N. Rega, 
 G. Zheng, W. Liang, M. Hada, M. Ehara, K. Toyota, R. Fukuda, 
 J. Hasegawa, M. Ishida, T. Nakajima, Y. Honda, O. Kitao, H. Nakai, 
 T. Vreven, K. Throssell, J. A. Montgomery, Jr., J. E. Peralta, 
 F. Ogliaro, M. J. Bearpark, J. J. Heyd, E. N. Brothers, K. N. Kudin, 
 V. N. Staroverov, T. A. Keith, R. Kobayashi, J. Normand, 
 K. Raghavachari, A. P. Rendell, J. C. Burant, S. S. Iyengar, 
 J. Tomasi, M. Cossi, J. M. Millam, M. Klene, C. Adamo, R. Cammi, 
 J. W. Ochterski, R. L. Martin, K. Morokuma, O. Farkas, 
 J. B. Foresman, and D. J. Fox, Gaussian, Inc., Wallingford CT, 2019.
 
 ******************************************
 Gaussian 16:  ES64L-G16RevC.01  3-Jul-2019
                 8-Feb-2023 
 ******************************************
 %nproc=4
 Will use up to    4 processors via shared memory.
 %mem=5760MB
 %chk=gaussian_13_water_ccsdt_adz.chk
 ----------------------------------------
 #P CCSD(T)/aug-cc-pVDZ scf(maxcycle=200)
 ----------------------------------------
 1/38=1,172=1/1;
 2/12=2,17=6,18=5,40=1/2;
 3/5=16,7=10,11=9,25=1,30=1/1,2,3;
 4//1;
 5/5=2,7=200,38=5/2;
 8/6=4,9=120000,10=1/1,4;
 9/5=7,14=2/13;
 6/7=2,8=2,9=2,10=2/1;
 99/5=1,9=1/99;
 Leave Link    1 at Wed Feb  8 14:47:10 2023, MaxMem=   754974720 cpu:               0.1 elap:               0.0
 (Enter /opt/cluster/programs/g16-c.01/g16/l101.exe)
 --------------
 Gaussian input
 --------------
 Symbolic Z-matrix:
 Charge =  0 Multiplicity = 1
 O                     0.        0.11751   0. 
 H                     0.71834  -0.43951   0. 
 H                    -0.7729   -0.36094   0. 
 
 ITRead=  0  0  0
 MicOpt= -1 -1 -1
 NAtoms=      3 NQM=        3 NQMF=       0 NMMI=      0 NMMIF=      0
                NMic=       0 NMicF=      0.
                    Isotopes and Nuclear Properties:
 (Nuclear quadrupole moments (NQMom) in fm**2, nuclear magnetic moments (NMagM)
  in nuclear magnetons)

  Atom         1           2           3
 IAtWgt=          16           1           1
 AtmWgt=  15.9949146   1.0078250   1.0078250
 NucSpn=           0           1           1
 AtZEff=  -0.0000000  -0.0000000  -0.0000000
 NQMom=    0.0000000   0.0000000   0.0000000
 NMagM=    0.0000000   2.7928460   2.7928460
 AtZNuc=   8.0000000   1.0000000   1.0000000
 Leave Link  101 at Wed Feb  8 14:47:10 2023, MaxMem=   754974720 cpu:               0.6 elap:               0.2
 (Enter /opt/cluster/programs/g16-c.01/g16/l202.exe)
                          Input orientation:                          
 ---------------------------------------------------------------------
 Center     Atomic      Atomic             Coordinates (Angstroms)
 Number     Number       Type             X           Y           Z
 ---------------------------------------------------------------------
      1          8           0        0.000000    0.117510    0.000000
      2          1           0        0.718337   -0.439511    0.000000
      3          1           0       -0.772896   -0.360938    0.000000
 ---------------------------------------------------------------------
                    Distance matrix (angstroms):
                    1          2          3
     1  O    0.000000
     2  H    0.909000   0.000000
     3  H    0.909000   1.493302   0.000000
 Stoichiometry    H2O
 Framework group  C2V[C2(O),SGV(H2)]
 Deg. of freedom     2
 Full point group                 C2V     NOp   4
 Largest Abelian subgroup         C2V     NOp   4
 Largest concise Abelian subgroup C2      NOp   2
                         Standard orientation:                         
 ---------------------------------------------------------------------
 Center     Atomic      Atomic             Coordinates (Angstroms)
 Number     Number       Type             X           Y           Z
 ---------------------------------------------------------------------
      1          8           0       -0.000000    0.000000    0.103691
      2          1           0       -0.000000    0.746651   -0.414762
      3          1           0       -0.000000   -0.746651   -0.414762
 ---------------------------------------------------------------------
 Rotational constants (GHZ):        1050.3374664         449.7455261         314.9056277
 Leave Link  202 at Wed Feb  8 14:47:10 2023, MaxMem=   754974720 cpu:               0.1 elap:               0.0
 (Enter /opt/cluster/programs/g16-c.01/g16/l301.exe)
 Standard basis: Aug-CC-pVDZ (5D, 7F)
 Ernie: Thresh=  0.10000D-02 Tol=  0.10000D-05 Strict=F.
 Ernie:  2 primitive shells out of 39 were deleted.
 There are    20 symmetry adapted cartesian basis functions of A1  symmetry.
 There are     4 symmetry adapted cartesian basis functions of A2  symmetry.
 There are     7 symmetry adapted cartesian basis functions of B1  symmetry.
 There are    12 symmetry adapted cartesian basis functions of B2  symmetry.
 There are    18 symmetry adapted basis functions of A1  symmetry.
 There are     4 symmetry adapted basis functions of A2  symmetry.
 There are     7 symmetry adapted basis functions of B1  symmetry.
 There are    12 symmetry adapted basis functions of B2  symmetry.
    41 basis functions,    65 primitive gaussians,    43 cartesian basis functions
     5 alpha electrons        5 beta electrons
       nuclear repulsion energy         9.6688175701 Hartrees.
 IExCor=    0 DFT=F Ex=HF Corr=None ExCW=0 ScaHFX=  1.000000
 ScaDFX=  1.000000  1.000000  1.000000  1.000000 ScalE2=  1.000000  1.000000
 IRadAn=      5 IRanWt=     -1 IRanGd=            0 ICorTp=0 IEmpDi=  4
 NAtoms=    3 NActive=    3 NUniq=    2 SFac= 2.25D+00 NAtFMM=   60 NAOKFM=F Big=F
 Integral buffers will be    131072 words long.
 Raffenetti 1 integral format.
 Two-electron integral symmetry is turned on.
 Leave Link  301 at Wed Feb  8 14:47:10 2023, MaxMem=   754974720 cpu:               0.1 elap:               0.0
 (Enter /opt/cluster/programs/g16-c.01/g16/l302.exe)
 NPDir=0 NMtPBC=     1 NCelOv=     1 NCel=       1 NClECP=     1 NCelD=      1
         NCelK=      1 NCelE2=     1 NClLst=     1 CellRange=     0.0.
 One-electron integrals computed using PRISM.
 One-electron integral symmetry used in STVInt
 NBasis=    41 RedAO= T EigKep=  2.37D-03  NBF=    18     4     7    12
 NBsUse=    41 1.00D-06 EigRej= -1.00D+00 NBFU=    18     4     7    12
 Leave Link  302 at Wed Feb  8 14:47:10 2023, MaxMem=   754974720 cpu:               0.4 elap:               0.1
 (Enter /opt/cluster/programs/g16-c.01/g16/l303.exe)
 DipDrv:  MaxL=1.
 Leave Link  303 at Wed Feb  8 14:47:10 2023, MaxMem=   754974720 cpu:               0.2 elap:               0.1
 (Enter /opt/cluster/programs/g16-c.01/g16/l401.exe)
 ExpMin= 2.97D-02 ExpMax= 1.17D+04 ExpMxC= 4.01D+02 IAcc=3 IRadAn=         5 AccDes= 0.00D+00
 Harris functional with IExCor=  205 and IRadAn=       5 diagonalized for initial guess.
 HarFok:  IExCor=  205 AccDes= 0.00D+00 IRadAn=         5 IDoV= 1 UseB2=F ITyADJ=14
 ICtDFT=  3500011 ScaDFX=  1.000000  1.000000  1.000000  1.000000
 FoFCou: FMM=F IPFlag=           0 FMFlag=      100000 FMFlg1=           0
         NFxFlg=           0 DoJE=T BraDBF=F KetDBF=T FulRan=T
         wScrn=  0.000000 ICntrl=       500 IOpCl=  0 I1Cent=   200000004 NGrid=           0
         NMat0=    1 NMatS0=      1 NMatT0=    0 NMatD0=    1 NMtDS0=    0 NMtDT0=    0
 Petite list used in FoFCou.
 Harris En= -76.1238184107387    
 JPrj=0 DoOrth=F DoCkMO=F.
 Initial guess orbital symmetries:
       Occupied  (A1) (A1) (B2) (A1) (B1)
       Virtual   (A1) (B2) (A1) (B1) (A1) (B2) (B2) (A1) (A2) (A1)
                 (B1) (B2) (A1) (B2) (B2) (A1) (B1) (A1) (A2) (A1)
                 (B1) (B2) (A1) (B2) (A2) (B1) (B2) (A1) (A1) (B2)
                 (A1) (B1) (A1) (A2) (A1) (B2)
 The electronic state of the initial guess is 1-A1.
 Leave Link  401 at Wed Feb  8 14:47:10 2023, MaxMem=   754974720 cpu:               0.6 elap:               0.2
 (Enter /opt/cluster/programs/g16-c.01/g16/l502.exe)
 Keep R1 ints in memory in symmetry-blocked form, NReq=1211530.
 FoFCou: FMM=F IPFlag=           0 FMFlag=           0 FMFlg1=           0
         NFxFlg=           0 DoJE=F BraDBF=F KetDBF=F FulRan=T
         wScrn=  0.000000 ICntrl=       600 IOpCl=  0 I1Cent=           0 NGrid=           0
         NMat0=    1 NMatS0=    861 NMatT0=    0 NMatD0=    1 NMtDS0=    0 NMtDT0=    0
 Petite list used in FoFCou.
 Closed shell SCF:
 Using DIIS extrapolation, IDIIS=  1040.
 NGot=   754974720 LenX=   754868251 LenY=   754865961
 Requested convergence on RMS density matrix=1.00D-08 within 200 cycles.
 Requested convergence on MAX density matrix=1.00D-06.
 Requested convergence on             energy=1.00D-06.
 No special actions if energy rises.

 Cycle   1  Pass 1  IDiag  1:
 E= -75.9560736964602    
 DIIS: error= 5.36D-02 at cycle   1 NSaved=   1.
 NSaved= 1 IEnMin= 1 EnMin= -75.9560736964602     IErMin= 1 ErrMin= 5.36D-02
 ErrMax= 5.36D-02  0.00D+00 EMaxC= 1.00D-01 BMatC= 1.28D-01 BMatP= 1.28D-01
 IDIUse=3 WtCom= 4.64D-01 WtEn= 5.36D-01
 Coeff-Com:  0.100D+01
 Coeff-En:   0.100D+01
 Coeff:      0.100D+01
 Gap=     0.454 Goal=   None    Shift=    0.000
 GapD=    0.454 DampG=2.000 DampE=0.500 DampFc=1.0000 IDamp=-1.
 RMSDP=6.57D-03 MaxDP=1.25D-01              OVMax= 1.22D-01

 Cycle   2  Pass 1  IDiag  1:
 E= -76.0072627189456     Delta-E=       -0.051189022485 Rises=F Damp=F
 DIIS: error= 3.88D-02 at cycle   2 NSaved=   2.
 NSaved= 2 IEnMin= 2 EnMin= -76.0072627189456     IErMin= 2 ErrMin= 3.88D-02
 ErrMax= 3.88D-02  0.00D+00 EMaxC= 1.00D-01 BMatC= 4.55D-02 BMatP= 1.28D-01
 IDIUse=3 WtCom= 6.12D-01 WtEn= 3.88D-01
 Coeff-Com:  0.363D+00 0.637D+00
 Coeff-En:   0.172D+00 0.828D+00
 Coeff:      0.289D+00 0.711D+00
 Gap=     0.569 Goal=   None    Shift=    0.000
 RMSDP=2.94D-03 MaxDP=5.48D-02 DE=-5.12D-02 OVMax= 5.85D-02

 Cycle   3  Pass 1  IDiag  1:
 E= -76.0377877817371     Delta-E=       -0.030525062792 Rises=F Damp=F
 DIIS: error= 5.19D-03 at cycle   3 NSaved=   3.
 NSaved= 3 IEnMin= 3 EnMin= -76.0377877817371     IErMin= 3 ErrMin= 5.19D-03
 ErrMax= 5.19D-03  0.00D+00 EMaxC= 1.00D-01 BMatC= 1.27D-03 BMatP= 4.55D-02
 IDIUse=3 WtCom= 9.48D-01 WtEn= 5.19D-02
 Coeff-Com: -0.360D-01 0.994D-01 0.937D+00
 Coeff-En:   0.000D+00 0.000D+00 0.100D+01
 Coeff:     -0.341D-01 0.942D-01 0.940D+00
 Gap=     0.548 Goal=   None    Shift=    0.000
 RMSDP=4.86D-04 MaxDP=8.19D-03 DE=-3.05D-02 OVMax= 8.73D-03

 Cycle   4  Pass 1  IDiag  1:
 E= -76.0386990579438     Delta-E=       -0.000911276207 Rises=F Damp=F
 DIIS: error= 4.79D-04 at cycle   4 NSaved=   4.
 NSaved= 4 IEnMin= 4 EnMin= -76.0386990579438     IErMin= 4 ErrMin= 4.79D-04
 ErrMax= 4.79D-04  0.00D+00 EMaxC= 1.00D-01 BMatC= 5.37D-06 BMatP= 1.27D-03
 IDIUse=3 WtCom= 9.95D-01 WtEn= 4.79D-03
 Coeff-Com:  0.893D-02-0.441D-01-0.323D+00 0.136D+01
 Coeff-En:   0.000D+00 0.000D+00 0.000D+00 0.100D+01
 Coeff:      0.889D-02-0.439D-01-0.321D+00 0.136D+01
 Gap=     0.549 Goal=   None    Shift=    0.000
 RMSDP=9.76D-05 MaxDP=7.73D-04 DE=-9.11D-04 OVMax= 1.97D-03

 Cycle   5  Pass 1  IDiag  1:
 E= -76.0387114146275     Delta-E=       -0.000012356684 Rises=F Damp=F
 DIIS: error= 1.21D-04 at cycle   5 NSaved=   5.
 NSaved= 5 IEnMin= 5 EnMin= -76.0387114146275     IErMin= 5 ErrMin= 1.21D-04
 ErrMax= 1.21D-04  0.00D+00 EMaxC= 1.00D-01 BMatC= 1.87D-07 BMatP= 5.37D-06
 IDIUse=3 WtCom= 9.99D-01 WtEn= 1.21D-03
 Coeff-Com: -0.109D-02 0.749D-02 0.535D-01-0.371D+00 0.131D+01
 Coeff-En:   0.000D+00 0.000D+00 0.000D+00 0.000D+00 0.100D+01
 Coeff:     -0.109D-02 0.748D-02 0.535D-01-0.371D+00 0.131D+01
 Gap=     0.549 Goal=   None    Shift=    0.000
 RMSDP=2.13D-05 MaxDP=2.73D-04 DE=-1.24D-05 OVMax= 4.73D-04

 Cycle   6  Pass 1  IDiag  1:
 E= -76.0387119607702     Delta-E=       -0.000000546143 Rises=F Damp=F
 DIIS: error= 1.82D-05 at cycle   6 NSaved=   6.
 NSaved= 6 IEnMin= 6 EnMin= -76.0387119607702     IErMin= 6 ErrMin= 1.82D-05
 ErrMax= 1.82D-05  0.00D+00 EMaxC= 1.00D-01 BMatC= 5.29D-09 BMatP= 1.87D-07
 IDIUse=1 WtCom= 1.00D+00 WtEn= 0.00D+00
 Coeff-Com: -0.133D-03 0.399D-03 0.256D-02 0.110D-01-0.223D+00 0.121D+01
 Coeff:     -0.133D-03 0.399D-03 0.256D-02 0.110D-01-0.223D+00 0.121D+01
 Gap=     0.549 Goal=   None    Shift=    0.000
 RMSDP=2.74D-06 MaxDP=5.16D-05 DE=-5.46D-07 OVMax= 7.86D-05

 Cycle   7  Pass 1  IDiag  1:
 E= -76.0387119763371     Delta-E=       -0.000000015567 Rises=F Damp=F
 DIIS: error= 4.69D-06 at cycle   7 NSaved=   7.
 NSaved= 7 IEnMin= 7 EnMin= -76.0387119763371     IErMin= 7 ErrMin= 4.69D-06
 ErrMax= 4.69D-06  0.00D+00 EMaxC= 1.00D-01 BMatC= 3.10D-10 BMatP= 5.29D-09
 IDIUse=1 WtCom= 1.00D+00 WtEn= 0.00D+00
 Coeff-Com:  0.105D-03-0.584D-03-0.420D-02 0.211D-01-0.174D-01-0.310D+00
 Coeff-Com:  0.131D+01
 Coeff:      0.105D-03-0.584D-03-0.420D-02 0.211D-01-0.174D-01-0.310D+00
 Coeff:      0.131D+01
 Gap=     0.549 Goal=   None    Shift=    0.000
 RMSDP=6.34D-07 MaxDP=1.25D-05 DE=-1.56D-08 OVMax= 1.81D-05

 Cycle   8  Pass 1  IDiag  1:
 E= -76.0387119771486     Delta-E=       -0.000000000811 Rises=F Damp=F
 DIIS: error= 6.38D-07 at cycle   8 NSaved=   8.
 NSaved= 8 IEnMin= 8 EnMin= -76.0387119771486     IErMin= 8 ErrMin= 6.38D-07
 ErrMax= 6.38D-07  0.00D+00 EMaxC= 1.00D-01 BMatC= 8.61D-12 BMatP= 3.10D-10
 IDIUse=1 WtCom= 1.00D+00 WtEn= 0.00D+00
 Coeff-Com: -0.200D-04 0.124D-03 0.931D-03-0.580D-02 0.124D-01 0.390D-01
 Coeff-Com: -0.357D+00 0.131D+01
 Coeff:     -0.200D-04 0.124D-03 0.931D-03-0.580D-02 0.124D-01 0.390D-01
 Coeff:     -0.357D+00 0.131D+01
 Gap=     0.549 Goal=   None    Shift=    0.000
 RMSDP=1.47D-07 MaxDP=1.99D-06 DE=-8.11D-10 OVMax= 2.77D-06

 Cycle   9  Pass 1  IDiag  1:
 E= -76.0387119771701     Delta-E=       -0.000000000021 Rises=F Damp=F
 DIIS: error= 6.70D-08 at cycle   9 NSaved=   9.
 NSaved= 9 IEnMin= 9 EnMin= -76.0387119771701     IErMin= 9 ErrMin= 6.70D-08
 ErrMax= 6.70D-08  0.00D+00 EMaxC= 1.00D-01 BMatC= 1.01D-13 BMatP= 8.61D-12
 IDIUse=1 WtCom= 1.00D+00 WtEn= 0.00D+00
 Coeff-Com:  0.127D-05-0.954D-05-0.794D-04 0.667D-03-0.207D-02-0.843D-03
 Coeff-Com:  0.423D-01-0.239D+00 0.120D+01
 Coeff:      0.127D-05-0.954D-05-0.794D-04 0.667D-03-0.207D-02-0.843D-03
 Coeff:      0.423D-01-0.239D+00 0.120D+01
 Gap=     0.549 Goal=   None    Shift=    0.000
 RMSDP=1.62D-08 MaxDP=1.99D-07 DE=-2.14D-11 OVMax= 2.48D-07

 Cycle  10  Pass 1  IDiag  1:
 E= -76.0387119771703     Delta-E=       -0.000000000000 Rises=F Damp=F
 DIIS: error= 1.71D-08 at cycle  10 NSaved=  10.
 NSaved=10 IEnMin=10 EnMin= -76.0387119771703     IErMin=10 ErrMin= 1.71D-08
 ErrMax= 1.71D-08  0.00D+00 EMaxC= 1.00D-01 BMatC= 3.96D-15 BMatP= 1.01D-13
 IDIUse=1 WtCom= 1.00D+00 WtEn= 0.00D+00
 Coeff-Com: -0.502D-07 0.899D-06 0.105D-04-0.133D-03 0.544D-03-0.599D-03
 Coeff-Com: -0.745D-02 0.549D-01-0.417D+00 0.137D+01
 Coeff:     -0.502D-07 0.899D-06 0.105D-04-0.133D-03 0.544D-03-0.599D-03
 Coeff:     -0.745D-02 0.549D-01-0.417D+00 0.137D+01
 Gap=     0.549 Goal=   None    Shift=    0.000
 RMSDP=3.30D-09 MaxDP=3.10D-08 DE=-2.70D-13 OVMax= 4.44D-08

 SCF Done:  E(RHF) =  -76.0387119772     A.U. after   10 cycles
            NFock= 10  Conv=0.33D-08     -V/T= 1.9988
 KE= 7.612935181471D+01 PE=-1.999464187113D+02 EE= 3.810953734936D+01
 Leave Link  502 at Wed Feb  8 14:47:10 2023, MaxMem=   754974720 cpu:               0.5 elap:               0.2
 (Enter /opt/cluster/programs/g16-c.01/g16/l801.exe)
 Windowed orbitals will be sorted by symmetry type.
 ExpMin= 2.97D-02 ExpMax= 1.17D+04 ExpMxC= 4.01D+02 IAcc=3 IRadAn=         5 AccDes= 0.00D+00
 HarFok:  IExCor=  205 AccDes= 0.00D+00 IRadAn=         5 IDoV=-2 UseB2=F ITyADJ=14
 ICtDFT= 12500011 ScaDFX=  1.000000  1.000000  1.000000  1.000000
 Largest valence mixing into a core orbital is  5.91D-05
 Largest core mixing into a valence orbital is  1.65D-05
 Range of M.O.s used for correlation:     2    41
 NBasis=    41 NAE=     5 NBE=     5 NFC=     1 NFV=     0
 NROrb=     40 NOA=     4 NOB=     4 NVA=    36 NVB=    36
 Leave Link  801 at Wed Feb  8 14:47:11 2023, MaxMem=   754974720 cpu:               0.3 elap:               0.1
 (Enter /opt/cluster/programs/g16-c.01/g16/l804.exe)
 Closed-shell transformation, MDV=   754974720 ITran=4 ISComp=2.
 Unit  1 TFree=         57018 TCopy=        140846.
 Semi-Direct transformation.
 ModeAB=           4 MOrb=             4 LenV=     754769439
 LASXX=        30213 LTotXX=       30213 LenRXX=       63236
 LTotAB=       33023 MaxLAS=      110560 LenRXY=           0
 NonZer=       93449 LenScr=      785920 LnRSAI=      110560
 LnScr1=      785920 LExtra=           0 Total=      1745636
 MaxDsk=          -1 SrtSym=           T ITran=            4
 DoSDTr:  NPSUse=  4
 JobTyp=0 Pass  1:  I=   1 to   4.
 (rs|ai) integrals will be sorted in core.
 Complete sort for first half transformation.
 First half transformation complete.
 Complete sort for second half transformation.
 Second half transformation complete.
 Spin components of T(2) and E(2):
     alpha-alpha T2 =       0.7309859725D-02 E2=     -0.2740857268D-01
     alpha-beta  T2 =       0.4102903863D-01 E2=     -0.1601237319D+00
     beta-beta   T2 =       0.7309859725D-02 E2=     -0.2740857268D-01
 ANorm=    0.1027447691D+01
 E2 =    -0.2149408772D+00 EUMP2 =    -0.76253652854387D+02
 Leave Link  804 at Wed Feb  8 14:47:11 2023, MaxMem=   754974720 cpu:               0.3 elap:               0.1
 (Enter /opt/cluster/programs/g16-c.01/g16/l913.exe)
 CIDS:  MDV=   754974720.
 Frozen-core window:  NFC=   1 NFV=   0.
 IFCWin=0 IBDFC=1 NFBD=     0     0 NFCmp=     0     0 NFFFC=     0     0
 Using DD3R+UMP44R for 1st iteration.
 Using DD4RQ for 2nd and later iterations.
 Keep R2 and R3 ints in memory in symmetry-blocked form, NReq=1214306.
 FoFCou: FMM=F IPFlag=           0 FMFlag=           0 FMFlg1=           0
         NFxFlg=           0 DoJE=F BraDBF=F KetDBF=F FulRan=T
         wScrn=  0.000000 ICntrl=       600 IOpCl=  0 I1Cent=           0 NGrid=           0
         NMat0=    1 NMatS0=    861 NMatT0=    0 NMatD0=    1 NMtDS0=    0 NMtDT0=    0
 Petite list used in FoFCou.
 CIDS: In Core Option IDoMem=           1.
 CCSD(T)
 =======
 Iterations=  50 Convergence= 0.100D-06
 Produce multiple copies of IABC intergrals
 Iteration Nr.   1
 **********************
 DD1Dir will call FoFMem   1 times, MxPair=        20
 NAB=    10 NAA=     0 NBB=     0.
 MP4(R+Q)=  0.23485793D-02
 Maximum subspace dimension=  5
 A-vector RMS=  5.0559655D-03 Max=  1.5697566D-02 conv= 1.00D-05.
 RLE energy=       -0.2180545091
 E3=       -0.55041115D-02        EUMP3=      -0.76259156966D+02
 E4(DQ)=   -0.12004053D-02        UMP4(DQ)=   -0.76260357371D+02
 E4(SDQ)=  -0.27221851D-02        UMP4(SDQ)=  -0.76261879151D+02
 VARIATIONAL ENERGIES WITH THE FIRST-ORDER WAVEFUNCTION:
 DE(Corr)= -0.21801008     E(Corr)=     -76.256722062    
 NORM(A)=   0.10285673D+01
 Iteration Nr.   2
 **********************
 DD1Dir will call FoFMem   1 times, MxPair=        20
 NAB=    10 NAA=     0 NBB=     0.
 A-vector RMS=  5.7686742D-04 Max=  2.7647454D-03 conv= 1.00D-05.
 RLE energy=       -0.2226300905
 DE(Corr)= -0.22209141     E(CORR)=     -76.260803387     Delta=-4.08D-03
 NORM(A)=   0.10304367D+01
 Iteration Nr.   3
 **********************
 DD1Dir will call FoFMem   1 times, MxPair=        20
 NAB=    10 NAA=     0 NBB=     0.
 A-vector RMS=  6.7114211D-04 Max=  2.5848645D-03 conv= 1.00D-05.
 RLE energy=       -0.2229461139
 DE(Corr)= -0.22259226     E(CORR)=     -76.261304235     Delta=-5.01D-04
 NORM(A)=   0.10308578D+01
 Iteration Nr.   4
 **********************
 DD1Dir will call FoFMem   1 times, MxPair=        20
 NAB=    10 NAA=     0 NBB=     0.
 A-vector RMS=  8.0222084D-05 Max=  3.3210576D-04 conv= 1.00D-05.
 RLE energy=       -0.2229757917
 DE(Corr)= -0.22295168     E(CORR)=     -76.261663660     Delta=-3.59D-04
 NORM(A)=   0.10309506D+01
 Iteration Nr.   5
 **********************
 DD1Dir will call FoFMem   1 times, MxPair=        20
 NAB=    10 NAA=     0 NBB=     0.
 A-vector RMS=  3.3670596D-05 Max=  1.5197606D-04 conv= 1.00D-05.
 RLE energy=       -0.2229794780
 DE(Corr)= -0.22297684     E(CORR)=     -76.261688821     Delta=-2.52D-05
 NORM(A)=   0.10309652D+01
 Iteration Nr.   6
 **********************
 DD1Dir will call FoFMem   1 times, MxPair=        20
 NAB=    10 NAA=     0 NBB=     0.
 A-vector RMS=  9.0944735D-06 Max=  3.8201393D-05 conv= 1.00D-05.
 RLE energy=       -0.2229773088
 DE(Corr)= -0.22297833     E(CORR)=     -76.261690303     Delta=-1.48D-06
 NORM(A)=   0.10309669D+01
 Iteration Nr.   7
 **********************
 DD1Dir will call FoFMem   1 times, MxPair=        20
 NAB=    10 NAA=     0 NBB=     0.
 A-vector RMS=  3.0801877D-06 Max=  1.1811504D-05 conv= 1.00D-05.
 RLE energy=       -0.2229778020
 DE(Corr)= -0.22297830     E(CORR)=     -76.261690274     Delta= 2.86D-08
 NORM(A)=   0.10309675D+01
 Iteration Nr.   8
 **********************
 DD1Dir will call FoFMem   1 times, MxPair=        20
 NAB=    10 NAA=     0 NBB=     0.
 A-vector RMS=  9.9834481D-07 Max=  4.7116459D-06 conv= 1.00D-05.
 RLE energy=       -0.2229779929
 DE(Corr)= -0.22297805     E(CORR)=     -76.261690025     Delta= 2.49D-07
 NORM(A)=   0.10309678D+01
 Iteration Nr.   9
 **********************
 DD1Dir will call FoFMem   1 times, MxPair=        20
 NAB=    10 NAA=     0 NBB=     0.
 A-vector RMS=  2.2557094D-07 Max=  8.6254411D-07 conv= 1.00D-05.
 RLE energy=       -0.2229781465
 DE(Corr)= -0.22297816     E(CORR)=     -76.261690133     Delta=-1.08D-07
 NORM(A)=   0.10309679D+01
 Iteration Nr.  10
 **********************
 DD1Dir will call FoFMem   1 times, MxPair=        20
 NAB=    10 NAA=     0 NBB=     0.
 A-vector RMS=  9.9589900D-08 Max=  3.4969744D-07 conv= 1.00D-05.
 RLE energy=       -0.2229781820
 DE(Corr)= -0.22297817     E(CORR)=     -76.261690146     Delta=-1.22D-08
 NORM(A)=   0.10309679D+01
 CI/CC converged in   10 iterations to DelEn=-1.22D-08 Conv= 1.00D-07 ErrA1= 9.96D-08 Conv= 1.00D-05
 Wavefunction amplitudes converged. E(Corr)=     -76.261690146    
 Largest amplitude= 3.37D-02
 IPart=  2 IA=    3   10.95% done.
 IPart=  2 IA=    5   21.27% done.
 IPart=  1 IA=    7   30.95% done.
 IPart=  4 IA=    9   40.00% done.
 IPart=  2 IA=   12   52.38% done.
 IPart=  1 IA=   15   63.33% done.
 IPart=  1 IA=   18   72.86% done.
 IPart=  1 IA=   21   80.95% done.
 IPart=  1 IA=   26   91.27% done.
 Time for triples=        0.78 seconds.
 T4(CCSD)= -0.52065750D-02
 T5(CCSD)=  0.36233476D-03
 CCSD(T)= -0.76266534386D+02
 Discarding MO integrals.
 Leave Link  913 at Wed Feb  8 14:47:11 2023, MaxMem=   754974720 cpu:               1.7 elap:               0.4
 (Enter /opt/cluster/programs/g16-c.01/g16/l601.exe)
 Copying SCF densities to generalized density rwf, IOpCl= 0 IROHF=0.

 **********************************************************************

            Population analysis using the SCF Density.

 **********************************************************************

 Orbital symmetries:
       Occupied  (A1) (A1) (B2) (A1) (B1)
       Virtual   (A1) (B2) (A1) (B1) (A1) (B2) (B2) (A1) (A2) (A1)
                 (B1) (B2) (B2) (A1) (B2) (A1) (B1) (A1) (A2) (A1)
                 (B2) (B1) (A1) (B2) (A2) (B1) (A1) (B2) (A1) (B2)
                 (A1) (B1) (A1) (A2) (A1) (B2)
 The electronic state is 1-A1.
 Alpha  occ. eigenvalues --  -20.56623  -1.37855  -0.75906  -0.58294  -0.51221
 Alpha virt. eigenvalues --    0.03667   0.05764   0.17330   0.19340   0.22490
 Alpha virt. eigenvalues --    0.22811   0.30767   0.32983   0.38620   0.42318
 Alpha virt. eigenvalues --    0.45039   0.54048   0.65657   0.66234   0.85608
 Alpha virt. eigenvalues --    0.92677   1.08835   1.10140   1.15340   1.36146
 Alpha virt. eigenvalues --    1.49106   1.50494   1.59584   2.02910   2.06033
 Alpha virt. eigenvalues --    2.12371   2.45209   2.55070   2.71531   2.76965
 Alpha virt. eigenvalues --    2.94313   3.66988   3.69282   3.71832   4.15253
 Alpha virt. eigenvalues --    4.39444
          Condensed to atoms (all electrons):
               1          2          3
     1  O    7.480158   0.359705   0.359705
     2  H    0.359705   0.603157  -0.062647
     3  H    0.359705  -0.062647   0.603157
 Mulliken charges:
               1
     1  O   -0.199569
     2  H    0.099784
     3  H    0.099784
 Sum of Mulliken charges =  -0.00000
 Mulliken charges with hydrogens summed into heavy atoms:
               1
     1  O   -0.000000
 Electronic spatial extent (au):  <R**2>=             18.9270
 Charge=             -0.0000 electrons
 Dipole moment (field-independent basis, Debye):
    X=             -0.0000    Y=              0.0000    Z=             -1.8623  Tot=              1.8623
 Quadrupole moment (field-independent basis, Debye-Ang):
   XX=             -7.4820   YY=             -4.1542   ZZ=             -6.4001
   XY=              0.0000   XZ=              0.0000   YZ=              0.0000
 Traceless Quadrupole moment (field-independent basis, Debye-Ang):
   XX=             -1.4699   YY=              1.8579   ZZ=             -0.3880
   XY=              0.0000   XZ=              0.0000   YZ=              0.0000
 Octapole moment (field-independent basis, Debye-Ang**2):
  XXX=              0.0000  YYY=              0.0000  ZZZ=             -1.1419  XYY=             -0.0000
  XXY=             -0.0000  XXZ=             -0.3140  XZZ=              0.0000  YZZ=             -0.0000
  YYZ=             -1.2500  XYZ=             -0.0000
 Hexadecapole moment (field-independent basis, Debye-Ang**3):
 XXXX=             -6.6914 YYYY=             -5.5273 ZZZZ=             -6.9626 XXXY=             -0.0000
 XXXZ=             -0.0000 YYYX=             -0.0000 YYYZ=             -0.0000 ZZZX=             -0.0000
 ZZZY=              0.0000 XXYY=             -2.3466 XXZZ=             -2.3081 YYZZ=             -1.9000
 XXYZ=              0.0000 YYXZ=              0.0000 ZZXY=             -0.0000
 N-N= 9.668817570072D+00 E-N=-1.999464188169D+02  KE= 7.612935181471D+01
 Symmetry A1   KE= 6.802526913146D+01
 Symmetry A2   KE= 5.005667071134D-33
 Symmetry B1   KE= 4.436791374959D+00
 Symmetry B2   KE= 3.667291308286D+00
 Leave Link  601 at Wed Feb  8 14:47:11 2023, MaxMem=   754974720 cpu:               0.3 elap:               0.1
 (Enter /opt/cluster/programs/g16-c.01/g16/l9999.exe)
 Unable to Open any file for archive entry.
 1\1\GINC-NODE59\SP\RCCSD(T)-FC\Aug-CC-pVDZ\H2O1\BOITTIER\08-Feb-2023\0
 \\#P CCSD(T)/aug-cc-pVDZ scf(maxcycle=200)\\Gaussian input\\0,1\O,0,0.
 ,0.11751,0.\H,0,0.7183372325,-0.4395112028,0.\H,0,-0.77289604,-0.36093
 82326,0.\\Version=ES64L-G16RevC.01\State=1-A1\HF=-76.038712\MP2=-76.25
 36529\MP3=-76.259157\MP4D=-76.262706\MP4DQ=-76.2603574\MP4SDQ=-76.2618
 792\CCSD=-76.2616901\CCSD(T)=-76.2665344\RMSD=3.303e-09\PG=C02V [C2(O1
 ),SGV(H2)]\\@
 The archive entry for this job was punched.


 IN NATURE THERE ARE NEITHER REWARDS OR
 PUNISHMENTS -- THERE ARE CONSEQUENCES.

                            -- ROBERT GREEN INGERSOLL
 Job cpu time:       0 days  0 hours  0 minutes  5.3 seconds.
 Elapsed time:       0 days  0 hours  0 minutes  1.5 seconds.
 File lengths (MBytes):  RWF=     20 Int=      0 D2E=      0 Chk=      1 Scr=      1
 Normal termination of Gaussian 16 at Wed Feb  8 14:47:11 2023.
