 Entering Gaussian System, Link 0=/opt/cluster/programs/g16-c.01/g16/g16
 Input=/scratch/boittier/jobs/tmp.7262333/gaussian_141_water_ccsdt_adz.com
 Output=/scratch/boittier/jobs/tmp.7262333/gaussian_141_water_ccsdt_adz.out
 Initial command:
 /opt/cluster/programs/g16-c.01/g16/l1.exe "/scratch/boittier/jobs/tmp.7262333/Gau-167374.inp" -scrdir="/scratch/boittier/jobs/tmp.7262333/"
 Entering Link 1 = /opt/cluster/programs/g16-c.01/g16/l1.exe PID=    167375.
  
 Copyright (c) 1988-2019, Gaussian, Inc.  All Rights Reserved.
  
 This is part of the Gaussian(R) 16 program.  It is based on
 the Gaussian(R) 09 system (copyright 2009, Gaussian, Inc.),
 the Gaussian(R) 03 system (copyright 2003, Gaussian, Inc.),
 the Gaussian(R) 98 system (copyright 1998, Gaussian, Inc.),
 the Gaussian(R) 94 system (copyright 1995, Gaussian, Inc.),
 the Gaussian 92(TM) system (copyright 1992, Gaussian, Inc.),
 the Gaussian 90(TM) system (copyright 1990, Gaussian, Inc.),
 the Gaussian 88(TM) system (copyright 1988, Gaussian, Inc.),
 the Gaussian 86(TM) system (copyright 1986, Carnegie Mellon
 University), and the Gaussian 82(TM) system (copyright 1983,
 Carnegie Mellon University). Gaussian is a federally registered
 trademark of Gaussian, Inc.
  
 This software contains proprietary and confidential information,
 including trade secrets, belonging to Gaussian, Inc.
  
 This software is provided under written license and may be
 used, copied, transmitted, or stored only in accord with that
 written license.
  
 The following legend is applicable only to US Government
 contracts under FAR:
  
                    RESTRICTED RIGHTS LEGEND
  
 Use, reproduction and disclosure by the US Government is
 subject to restrictions as set forth in subparagraphs (a)
 and (c) of the Commercial Computer Software - Restricted
 Rights clause in FAR 52.227-19.
  
 Gaussian, Inc.
 340 Quinnipiac St., Bldg. 40, Wallingford CT 06492
  
  
 ---------------------------------------------------------------
 Warning -- This program may not be used in any manner that
 competes with the business of Gaussian, Inc. or will provide
 assistance to any competitor of Gaussian, Inc.  The licensee
 of this program is prohibited from giving any competitor of
 Gaussian, Inc. access to this program.  By using this program,
 the user acknowledges that Gaussian, Inc. is engaged in the
 business of creating and licensing software in the field of
 computational chemistry and represents and warrants to the
 licensee that it is not a competitor of Gaussian, Inc. and that
 it will not use this program in any manner prohibited above.
 ---------------------------------------------------------------
  

 Cite this work as:
 Gaussian 16, Revision C.01,
 M. J. Frisch, G. W. Trucks, H. B. Schlegel, G. E. Scuseria, 
 M. A. Robb, J. R. Cheeseman, G. Scalmani, V. Barone, 
 G. A. Petersson, H. Nakatsuji, X. Li, M. Caricato, A. V. Marenich, 
 J. Bloino, B. G. Janesko, R. Gomperts, B. Mennucci, H. P. Hratchian, 
 J. V. Ortiz, A. F. Izmaylov, J. L. Sonnenberg, D. Williams-Young, 
 F. Ding, F. Lipparini, F. Egidi, J. Goings, B. Peng, A. Petrone, 
 T. Henderson, D. Ranasinghe, V. G. Zakrzewski, J. Gao, N. Rega, 
 G. Zheng, W. Liang, M. Hada, M. Ehara, K. Toyota, R. Fukuda, 
 J. Hasegawa, M. Ishida, T. Nakajima, Y. Honda, O. Kitao, H. Nakai, 
 T. Vreven, K. Throssell, J. A. Montgomery, Jr., J. E. Peralta, 
 F. Ogliaro, M. J. Bearpark, J. J. Heyd, E. N. Brothers, K. N. Kudin, 
 V. N. Staroverov, T. A. Keith, R. Kobayashi, J. Normand, 
 K. Raghavachari, A. P. Rendell, J. C. Burant, S. S. Iyengar, 
 J. Tomasi, M. Cossi, J. M. Millam, M. Klene, C. Adamo, R. Cammi, 
 J. W. Ochterski, R. L. Martin, K. Morokuma, O. Farkas, 
 J. B. Foresman, and D. J. Fox, Gaussian, Inc., Wallingford CT, 2019.
 
 ******************************************
 Gaussian 16:  ES64L-G16RevC.01  3-Jul-2019
                 8-Feb-2023 
 ******************************************
 %nproc=4
 Will use up to    4 processors via shared memory.
 %mem=5760MB
 %chk=gaussian_141_water_ccsdt_adz.chk
 ----------------------------------------
 #P CCSD(T)/aug-cc-pVDZ scf(maxcycle=200)
 ----------------------------------------
 1/38=1,172=1/1;
 2/12=2,17=6,18=5,40=1/2;
 3/5=16,7=10,11=9,25=1,30=1/1,2,3;
 4//1;
 5/5=2,7=200,38=5/2;
 8/6=4,9=120000,10=1/1,4;
 9/5=7,14=2/13;
 6/7=2,8=2,9=2,10=2/1;
 99/5=1,9=1/99;
 Leave Link    1 at Wed Feb  8 14:50:28 2023, MaxMem=   754974720 cpu:               0.2 elap:               0.1
 (Enter /opt/cluster/programs/g16-c.01/g16/l101.exe)
 --------------
 Gaussian input
 --------------
 Symbolic Z-matrix:
 Charge =  0 Multiplicity = 1
 O                     0.        0.11751   0. 
 H                     0.79736  -0.50079   0. 
 H                    -0.53961  -0.67527   0. 
 
 ITRead=  0  0  0
 MicOpt= -1 -1 -1
 NAtoms=      3 NQM=        3 NQMF=       0 NMMI=      0 NMMIF=      0
                NMic=       0 NMicF=      0.
                    Isotopes and Nuclear Properties:
 (Nuclear quadrupole moments (NQMom) in fm**2, nuclear magnetic moments (NMagM)
  in nuclear magnetons)

  Atom         1           2           3
 IAtWgt=          16           1           1
 AtmWgt=  15.9949146   1.0078250   1.0078250
 NucSpn=           0           1           1
 AtZEff=  -0.0000000  -0.0000000  -0.0000000
 NQMom=    0.0000000   0.0000000   0.0000000
 NMagM=    0.0000000   2.7928460   2.7928460
 AtZNuc=   8.0000000   1.0000000   1.0000000
 Leave Link  101 at Wed Feb  8 14:50:28 2023, MaxMem=   754974720 cpu:               0.3 elap:               0.2
 (Enter /opt/cluster/programs/g16-c.01/g16/l202.exe)
                          Input orientation:                          
 ---------------------------------------------------------------------
 Center     Atomic      Atomic             Coordinates (Angstroms)
 Number     Number       Type             X           Y           Z
 ---------------------------------------------------------------------
      1          8           0        0.000000    0.117510    0.000000
      2          1           0        0.797362   -0.500790    0.000000
      3          1           0       -0.539607   -0.675273    0.000000
 ---------------------------------------------------------------------
                    Distance matrix (angstroms):
                    1          2          3
     1  O    0.000000
     2  H    1.009000   0.000000
     3  H    0.959000   1.348307   0.000000
 Stoichiometry    H2O
 Framework group  CS[SG(H2O)]
 Deg. of freedom     3
 Full point group                 CS      NOp   2
 Largest Abelian subgroup         CS      NOp   2
 Largest concise Abelian subgroup C1      NOp   1
                         Standard orientation:                         
 ---------------------------------------------------------------------
 Center     Atomic      Atomic             Coordinates (Angstroms)
 Number     Number       Type             X           Y           Z
 ---------------------------------------------------------------------
      1          8           0       -0.000000    0.143443   -0.000000
      2          1           0        0.673280   -0.608072   -0.000000
      3          1           0       -0.673280   -0.539473    0.000000
 ---------------------------------------------------------------------
 Rotational constants (GHZ):         579.7922024         523.5834351         275.1280549
 Leave Link  202 at Wed Feb  8 14:50:28 2023, MaxMem=   754974720 cpu:               0.1 elap:               0.1
 (Enter /opt/cluster/programs/g16-c.01/g16/l301.exe)
 Standard basis: Aug-CC-pVDZ (5D, 7F)
 Ernie: Thresh=  0.10000D-02 Tol=  0.10000D-05 Strict=F.
 Ernie:  2 primitive shells out of 39 were deleted.
 There are    32 symmetry adapted cartesian basis functions of A'  symmetry.
 There are    11 symmetry adapted cartesian basis functions of A"  symmetry.
 There are    30 symmetry adapted basis functions of A'  symmetry.
 There are    11 symmetry adapted basis functions of A"  symmetry.
    41 basis functions,    65 primitive gaussians,    43 cartesian basis functions
     5 alpha electrons        5 beta electrons
       nuclear repulsion energy         9.0025405568 Hartrees.
 IExCor=    0 DFT=F Ex=HF Corr=None ExCW=0 ScaHFX=  1.000000
 ScaDFX=  1.000000  1.000000  1.000000  1.000000 ScalE2=  1.000000  1.000000
 IRadAn=      5 IRanWt=     -1 IRanGd=            0 ICorTp=0 IEmpDi=  4
 NAtoms=    3 NActive=    3 NUniq=    3 SFac= 1.00D+00 NAtFMM=   60 NAOKFM=F Big=F
 Integral buffers will be    131072 words long.
 Raffenetti 1 integral format.
 Two-electron integral symmetry is turned on.
 Leave Link  301 at Wed Feb  8 14:50:28 2023, MaxMem=   754974720 cpu:               0.1 elap:               0.0
 (Enter /opt/cluster/programs/g16-c.01/g16/l302.exe)
 NPDir=0 NMtPBC=     1 NCelOv=     1 NCel=       1 NClECP=     1 NCelD=      1
         NCelK=      1 NCelE2=     1 NClLst=     1 CellRange=     0.0.
 One-electron integrals computed using PRISM.
 One-electron integral symmetry used in STVInt
 NBasis=    41 RedAO= T EigKep=  1.97D-03  NBF=    30    11
 NBsUse=    41 1.00D-06 EigRej= -1.00D+00 NBFU=    30    11
 Leave Link  302 at Wed Feb  8 14:50:29 2023, MaxMem=   754974720 cpu:               1.0 elap:               0.5
 (Enter /opt/cluster/programs/g16-c.01/g16/l303.exe)
 DipDrv:  MaxL=1.
 Leave Link  303 at Wed Feb  8 14:50:29 2023, MaxMem=   754974720 cpu:               0.3 elap:               0.1
 (Enter /opt/cluster/programs/g16-c.01/g16/l401.exe)
 ExpMin= 2.97D-02 ExpMax= 1.17D+04 ExpMxC= 4.01D+02 IAcc=3 IRadAn=         5 AccDes= 0.00D+00
 Harris functional with IExCor=  205 and IRadAn=       5 diagonalized for initial guess.
 HarFok:  IExCor=  205 AccDes= 0.00D+00 IRadAn=         5 IDoV= 1 UseB2=F ITyADJ=14
 ICtDFT=  3500011 ScaDFX=  1.000000  1.000000  1.000000  1.000000
 FoFCou: FMM=F IPFlag=           0 FMFlag=      100000 FMFlg1=           0
         NFxFlg=           0 DoJE=T BraDBF=F KetDBF=T FulRan=T
         wScrn=  0.000000 ICntrl=       500 IOpCl=  0 I1Cent=   200000004 NGrid=           0
         NMat0=    1 NMatS0=      1 NMatT0=    0 NMatD0=    1 NMtDS0=    0 NMtDT0=    0
 Petite list used in FoFCou.
 Harris En= -76.1131160062302    
 JPrj=0 DoOrth=F DoCkMO=F.
 Initial guess orbital symmetries:
       Occupied  (A') (A') (A') (A') (A")
       Virtual   (A') (A') (A') (A") (A') (A') (A') (A') (A') (A")
                 (A") (A') (A') (A') (A') (A') (A") (A') (A") (A')
                 (A") (A') (A') (A") (A') (A') (A") (A') (A') (A')
                 (A') (A") (A') (A") (A') (A')
 The electronic state of the initial guess is 1-A'.
 Leave Link  401 at Wed Feb  8 14:50:29 2023, MaxMem=   754974720 cpu:               1.3 elap:               0.7
 (Enter /opt/cluster/programs/g16-c.01/g16/l502.exe)
 Keep R1 ints in memory in symmetry-blocked form, NReq=1210668.
 FoFCou: FMM=F IPFlag=           0 FMFlag=           0 FMFlg1=           0
         NFxFlg=           0 DoJE=F BraDBF=F KetDBF=F FulRan=T
         wScrn=  0.000000 ICntrl=       600 IOpCl=  0 I1Cent=           0 NGrid=           0
         NMat0=    1 NMatS0=    861 NMatT0=    0 NMatD0=    1 NMtDS0=    0 NMtDT0=    0
 Petite list used in FoFCou.
 Closed shell SCF:
 Using DIIS extrapolation, IDIIS=  1040.
 NGot=   754974720 LenX=   754771907 LenY=   754769617
 Requested convergence on RMS density matrix=1.00D-08 within 200 cycles.
 Requested convergence on MAX density matrix=1.00D-06.
 Requested convergence on             energy=1.00D-06.
 No special actions if energy rises.

 Cycle   1  Pass 1  IDiag  1:
 E= -75.9546153313124    
 DIIS: error= 4.85D-02 at cycle   1 NSaved=   1.
 NSaved= 1 IEnMin= 1 EnMin= -75.9546153313124     IErMin= 1 ErrMin= 4.85D-02
 ErrMax= 4.85D-02  0.00D+00 EMaxC= 1.00D-01 BMatC= 1.11D-01 BMatP= 1.11D-01
 IDIUse=3 WtCom= 5.15D-01 WtEn= 4.85D-01
 Coeff-Com:  0.100D+01
 Coeff-En:   0.100D+01
 Coeff:      0.100D+01
 Gap=     0.464 Goal=   None    Shift=    0.000
 GapD=    0.464 DampG=2.000 DampE=0.500 DampFc=1.0000 IDamp=-1.
 RMSDP=6.18D-03 MaxDP=1.12D-01              OVMax= 1.24D-01

 Cycle   2  Pass 1  IDiag  1:
 E= -75.9949264123871     Delta-E=       -0.040311081075 Rises=F Damp=F
 DIIS: error= 4.09D-02 at cycle   2 NSaved=   2.
 NSaved= 2 IEnMin= 2 EnMin= -75.9949264123871     IErMin= 2 ErrMin= 4.09D-02
 ErrMax= 4.09D-02  0.00D+00 EMaxC= 1.00D-01 BMatC= 4.64D-02 BMatP= 1.11D-01
 IDIUse=3 WtCom= 5.91D-01 WtEn= 4.09D-01
 Coeff-Com:  0.382D+00 0.618D+00
 Coeff-En:   0.240D+00 0.760D+00
 Coeff:      0.324D+00 0.676D+00
 Gap=     0.561 Goal=   None    Shift=    0.000
 RMSDP=3.01D-03 MaxDP=5.42D-02 DE=-4.03D-02 OVMax= 5.92D-02

 Cycle   3  Pass 1  IDiag  1:
 E= -76.0273328967113     Delta-E=       -0.032406484324 Rises=F Damp=F
 DIIS: error= 4.16D-03 at cycle   3 NSaved=   3.
 NSaved= 3 IEnMin= 3 EnMin= -76.0273328967113     IErMin= 3 ErrMin= 4.16D-03
 ErrMax= 4.16D-03  0.00D+00 EMaxC= 1.00D-01 BMatC= 1.08D-03 BMatP= 4.64D-02
 IDIUse=3 WtCom= 9.58D-01 WtEn= 4.16D-02
 Coeff-Com: -0.398D-01 0.859D-01 0.954D+00
 Coeff-En:   0.000D+00 0.000D+00 0.100D+01
 Coeff:     -0.381D-01 0.823D-01 0.956D+00
 Gap=     0.544 Goal=   None    Shift=    0.000
 RMSDP=4.58D-04 MaxDP=8.37D-03 DE=-3.24D-02 OVMax= 9.55D-03

 Cycle   4  Pass 1  IDiag  1:
 E= -76.0281781201094     Delta-E=       -0.000845223398 Rises=F Damp=F
 DIIS: error= 7.66D-04 at cycle   4 NSaved=   4.
 NSaved= 4 IEnMin= 4 EnMin= -76.0281781201094     IErMin= 4 ErrMin= 7.66D-04
 ErrMax= 7.66D-04  0.00D+00 EMaxC= 1.00D-01 BMatC= 8.44D-06 BMatP= 1.08D-03
 IDIUse=3 WtCom= 9.92D-01 WtEn= 7.66D-03
 Coeff-Com:  0.101D-01-0.427D-01-0.353D+00 0.139D+01
 Coeff-En:   0.000D+00 0.000D+00 0.000D+00 0.100D+01
 Coeff:      0.100D-01-0.424D-01-0.350D+00 0.138D+01
 Gap=     0.545 Goal=   None    Shift=    0.000
 RMSDP=1.18D-04 MaxDP=1.44D-03 DE=-8.45D-04 OVMax= 2.24D-03

 Cycle   5  Pass 1  IDiag  1:
 E= -76.0281994946788     Delta-E=       -0.000021374569 Rises=F Damp=F
 DIIS: error= 2.04D-04 at cycle   5 NSaved=   5.
 NSaved= 5 IEnMin= 5 EnMin= -76.0281994946788     IErMin= 5 ErrMin= 2.04D-04
 ErrMax= 2.04D-04  0.00D+00 EMaxC= 1.00D-01 BMatC= 3.61D-07 BMatP= 8.44D-06
 IDIUse=3 WtCom= 9.98D-01 WtEn= 2.04D-03
 Coeff-Com: -0.807D-03 0.600D-02 0.481D-01-0.348D+00 0.129D+01
 Coeff-En:   0.000D+00 0.000D+00 0.000D+00 0.000D+00 0.100D+01
 Coeff:     -0.805D-03 0.599D-02 0.480D-01-0.347D+00 0.129D+01
 Gap=     0.545 Goal=   None    Shift=    0.000
 RMSDP=2.65D-05 MaxDP=4.59D-04 DE=-2.14D-05 OVMax= 6.34D-04

 Cycle   6  Pass 1  IDiag  1:
 E= -76.0282005661278     Delta-E=       -0.000001071449 Rises=F Damp=F
 DIIS: error= 3.34D-05 at cycle   6 NSaved=   6.
 NSaved= 6 IEnMin= 6 EnMin= -76.0282005661278     IErMin= 6 ErrMin= 3.34D-05
 ErrMax= 3.34D-05  0.00D+00 EMaxC= 1.00D-01 BMatC= 1.28D-08 BMatP= 3.61D-07
 IDIUse=1 WtCom= 1.00D+00 WtEn= 0.00D+00
 Coeff-Com: -0.345D-03 0.117D-02 0.923D-02-0.148D-01-0.213D+00 0.122D+01
 Coeff:     -0.345D-03 0.117D-02 0.923D-02-0.148D-01-0.213D+00 0.122D+01
 Gap=     0.546 Goal=   None    Shift=    0.000
 RMSDP=4.45D-06 MaxDP=9.53D-05 DE=-1.07D-06 OVMax= 1.29D-04

 Cycle   7  Pass 1  IDiag  1:
 E= -76.0282006035125     Delta-E=       -0.000000037385 Rises=F Damp=F
 DIIS: error= 4.84D-06 at cycle   7 NSaved=   7.
 NSaved= 7 IEnMin= 7 EnMin= -76.0282006035125     IErMin= 7 ErrMin= 4.84D-06
 ErrMax= 4.84D-06  0.00D+00 EMaxC= 1.00D-01 BMatC= 4.99D-10 BMatP= 1.28D-08
 IDIUse=1 WtCom= 1.00D+00 WtEn= 0.00D+00
 Coeff-Com:  0.126D-03-0.584D-03-0.494D-02 0.229D-01-0.156D-01-0.256D+00
 Coeff-Com:  0.125D+01
 Coeff:      0.126D-03-0.584D-03-0.494D-02 0.229D-01-0.156D-01-0.256D+00
 Coeff:      0.125D+01
 Gap=     0.546 Goal=   None    Shift=    0.000
 RMSDP=8.19D-07 MaxDP=1.07D-05 DE=-3.74D-08 OVMax= 2.03D-05

 Cycle   8  Pass 1  IDiag  1:
 E= -76.0282006046131     Delta-E=       -0.000000001101 Rises=F Damp=F
 DIIS: error= 6.18D-07 at cycle   8 NSaved=   8.
 NSaved= 8 IEnMin= 8 EnMin= -76.0282006046131     IErMin= 8 ErrMin= 6.18D-07
 ErrMax= 6.18D-07  0.00D+00 EMaxC= 1.00D-01 BMatC= 1.04D-11 BMatP= 4.99D-10
 IDIUse=1 WtCom= 1.00D+00 WtEn= 0.00D+00
 Coeff-Com: -0.234D-04 0.119D-03 0.105D-02-0.570D-02 0.903D-02 0.406D-01
 Coeff-Com: -0.354D+00 0.131D+01
 Coeff:     -0.234D-04 0.119D-03 0.105D-02-0.570D-02 0.903D-02 0.406D-01
 Coeff:     -0.354D+00 0.131D+01
 Gap=     0.546 Goal=   None    Shift=    0.000
 RMSDP=1.72D-07 MaxDP=2.31D-06 DE=-1.10D-09 OVMax= 3.15D-06

 Cycle   9  Pass 1  IDiag  1:
 E= -76.0282006046409     Delta-E=       -0.000000000028 Rises=F Damp=F
 DIIS: error= 1.01D-07 at cycle   9 NSaved=   9.
 NSaved= 9 IEnMin= 9 EnMin= -76.0282006046409     IErMin= 9 ErrMin= 1.01D-07
 ErrMax= 1.01D-07  0.00D+00 EMaxC= 1.00D-01 BMatC= 3.48D-13 BMatP= 1.04D-11
 IDIUse=1 WtCom= 1.00D+00 WtEn= 0.00D+00
 Coeff-Com:  0.180D-05-0.100D-04-0.108D-03 0.729D-03-0.172D-02-0.282D-02
 Coeff-Com:  0.538D-01-0.317D+00 0.127D+01
 Coeff:      0.180D-05-0.100D-04-0.108D-03 0.729D-03-0.172D-02-0.282D-02
 Coeff:      0.538D-01-0.317D+00 0.127D+01
 Gap=     0.546 Goal=   None    Shift=    0.000
 RMSDP=2.59D-08 MaxDP=3.08D-07 DE=-2.78D-11 OVMax= 4.58D-07

 Cycle  10  Pass 1  IDiag  1:
 E= -76.0282006046417     Delta-E=       -0.000000000001 Rises=F Damp=F
 DIIS: error= 2.51D-08 at cycle  10 NSaved=  10.
 NSaved=10 IEnMin=10 EnMin= -76.0282006046417     IErMin=10 ErrMin= 2.51D-08
 ErrMax= 2.51D-08  0.00D+00 EMaxC= 1.00D-01 BMatC= 1.88D-14 BMatP= 3.48D-13
 IDIUse=1 WtCom= 1.00D+00 WtEn= 0.00D+00
 Coeff-Com:  0.796D-06-0.387D-05-0.281D-04 0.105D-03 0.252D-04-0.154D-02
 Coeff-Com:  0.507D-02 0.815D-02-0.316D+00 0.130D+01
 Coeff:      0.796D-06-0.387D-05-0.281D-04 0.105D-03 0.252D-04-0.154D-02
 Coeff:      0.507D-02 0.815D-02-0.316D+00 0.130D+01
 Gap=     0.546 Goal=   None    Shift=    0.000
 RMSDP=7.35D-09 MaxDP=7.99D-08 DE=-7.96D-13 OVMax= 1.58D-07

 SCF Done:  E(RHF) =  -76.0282006046     A.U. after   10 cycles
            NFock= 10  Conv=0.74D-08     -V/T= 2.0023
 KE= 7.585694225026D+01 PE=-1.984326329328D+02 EE= 3.754494952104D+01
 Leave Link  502 at Wed Feb  8 14:50:32 2023, MaxMem=   754974720 cpu:               5.2 elap:               2.6
 (Enter /opt/cluster/programs/g16-c.01/g16/l801.exe)
 Windowed orbitals will be sorted by symmetry type.
 ExpMin= 2.97D-02 ExpMax= 1.17D+04 ExpMxC= 4.01D+02 IAcc=3 IRadAn=         5 AccDes= 0.00D+00
 HarFok:  IExCor=  205 AccDes= 0.00D+00 IRadAn=         5 IDoV=-2 UseB2=F ITyADJ=14
 ICtDFT= 12500011 ScaDFX=  1.000000  1.000000  1.000000  1.000000
 Largest valence mixing into a core orbital is  6.32D-05
 Largest core mixing into a valence orbital is  1.78D-05
 Range of M.O.s used for correlation:     2    41
 NBasis=    41 NAE=     5 NBE=     5 NFC=     1 NFV=     0
 NROrb=     40 NOA=     4 NOB=     4 NVA=    36 NVB=    36

 **** Warning!!: The largest alpha MO coefficient is  0.11289942D+02

 Leave Link  801 at Wed Feb  8 14:50:32 2023, MaxMem=   754974720 cpu:               0.4 elap:               0.2
 (Enter /opt/cluster/programs/g16-c.01/g16/l804.exe)
 Closed-shell transformation, MDV=   754974720 ITran=4 ISComp=2.
 Unit  1 TFree=         57024 TCopy=        242858.
 Semi-Direct transformation.
 ModeAB=           2 MOrb=             4 LenV=     754769661
 LASXX=        60334 LTotXX=       60334 LenRXX=       60334
 LTotAB=       65632 MaxLAS=      151360 LenRXY=      151360
 NonZer=      159520 LenScr=      785920 LnRSAI=           0
 LnScr1=           0 LExtra=           0 Total=       997614
 MaxDsk=          -1 SrtSym=           F ITran=            4
 DoSDTr:  NPSUse=  4
 JobTyp=0 Pass  1:  I=   1 to   4.
 (rs|ai) integrals will be sorted in core.
 Complete sort for first half transformation.
 First half transformation complete.
 Complete sort for second half transformation.
 Second half transformation complete.
 Spin components of T(2) and E(2):
     alpha-alpha T2 =       0.8114156712D-02 E2=     -0.2853672477D-01
     alpha-beta  T2 =       0.4587079757D-01 E2=     -0.1667071459D+00
     beta-beta   T2 =       0.8114156712D-02 E2=     -0.2853672477D-01
 ANorm=    0.1030581928D+01
 E2 =    -0.2237805954D+00 EUMP2 =    -0.76251981200047D+02
 Leave Link  804 at Wed Feb  8 14:50:34 2023, MaxMem=   754974720 cpu:               3.0 elap:               1.5
 (Enter /opt/cluster/programs/g16-c.01/g16/l913.exe)
 CIDS:  MDV=   754974720.
 Frozen-core window:  NFC=   1 NFV=   0.
 IFCWin=0 IBDFC=1 NFBD=     0     0 NFCmp=     0     0 NFFFC=     0     0
 Using DD3R+UMP44R for 1st iteration.
 Using DD4RQ for 2nd and later iterations.
 Keep R2 and R3 ints in memory in symmetry-blocked form, NReq=1234037.
 FoFCou: FMM=F IPFlag=           0 FMFlag=           0 FMFlg1=           0
         NFxFlg=           0 DoJE=F BraDBF=F KetDBF=F FulRan=T
         wScrn=  0.000000 ICntrl=       600 IOpCl=  0 I1Cent=           0 NGrid=           0
         NMat0=    1 NMatS0=    861 NMatT0=    0 NMatD0=    1 NMtDS0=    0 NMtDT0=    0
 Petite list used in FoFCou.
 CIDS: In Core Option IDoMem=           1.
 CCSD(T)
 =======
 Iterations=  50 Convergence= 0.100D-06
 Produce multiple copies of IABC intergrals
 Iteration Nr.   1
 **********************
 DD1Dir will call FoFMem   1 times, MxPair=        20
 NAB=    10 NAA=     0 NBB=     0.
 MP4(R+Q)=  0.26401760D-02
 Maximum subspace dimension=  5
 A-vector RMS=  5.6794947D-03 Max=  1.7802180D-02 conv= 1.00D-05.
 RLE energy=       -0.2248703690
 E3=       -0.38203525D-02        EUMP3=      -0.76255801553D+02
 E4(DQ)=   -0.16734185D-02        UMP4(DQ)=   -0.76257474971D+02
 E4(SDQ)=  -0.36198832D-02        UMP4(SDQ)=  -0.76259421436D+02
 VARIATIONAL ENERGIES WITH THE FIRST-ORDER WAVEFUNCTION:
 DE(Corr)= -0.22486513     E(Corr)=     -76.253065733    
 NORM(A)=   0.10313561D+01
 Iteration Nr.   2
 **********************
 DD1Dir will call FoFMem   1 times, MxPair=        20
 NAB=    10 NAA=     0 NBB=     0.
 A-vector RMS=  6.8890534D-04 Max=  3.1492884D-03 conv= 1.00D-05.
 RLE energy=       -0.2305137538
 DE(Corr)= -0.22987156     E(CORR)=     -76.258072161     Delta=-5.01D-03
 NORM(A)=   0.10338171D+01
 Iteration Nr.   3
 **********************
 DD1Dir will call FoFMem   1 times, MxPair=        20
 NAB=    10 NAA=     0 NBB=     0.
 A-vector RMS=  7.9395737D-04 Max=  3.0029750D-03 conv= 1.00D-05.
 RLE energy=       -0.2309333724
 DE(Corr)= -0.23045512     E(CORR)=     -76.258655726     Delta=-5.84D-04
 NORM(A)=   0.10344197D+01
 Iteration Nr.   4
 **********************
 DD1Dir will call FoFMem   1 times, MxPair=        20
 NAB=    10 NAA=     0 NBB=     0.
 A-vector RMS=  1.0713029D-04 Max=  3.7527865D-04 conv= 1.00D-05.
 RLE energy=       -0.2309782336
 DE(Corr)= -0.23094289     E(CORR)=     -76.259143496     Delta=-4.88D-04
 NORM(A)=   0.10345521D+01
 Iteration Nr.   5
 **********************
 DD1Dir will call FoFMem   1 times, MxPair=        20
 NAB=    10 NAA=     0 NBB=     0.
 A-vector RMS=  3.8370112D-05 Max=  1.6543747D-04 conv= 1.00D-05.
 RLE energy=       -0.2309859951
 DE(Corr)= -0.23098146     E(CORR)=     -76.259182063     Delta=-3.86D-05
 NORM(A)=   0.10345725D+01
 Iteration Nr.   6
 **********************
 DD1Dir will call FoFMem   1 times, MxPair=        20
 NAB=    10 NAA=     0 NBB=     0.
 A-vector RMS=  1.1168358D-05 Max=  4.5718533D-05 conv= 1.00D-05.
 RLE energy=       -0.2309829839
 DE(Corr)= -0.23098417     E(CORR)=     -76.259184773     Delta=-2.71D-06
 NORM(A)=   0.10345742D+01
 Iteration Nr.   7
 **********************
 DD1Dir will call FoFMem   1 times, MxPair=        20
 NAB=    10 NAA=     0 NBB=     0.
 A-vector RMS=  3.7791352D-06 Max=  1.2930300D-05 conv= 1.00D-05.
 RLE energy=       -0.2309835066
 DE(Corr)= -0.23098422     E(CORR)=     -76.259184829     Delta=-5.59D-08
 NORM(A)=   0.10345747D+01
 Iteration Nr.   8
 **********************
 DD1Dir will call FoFMem   1 times, MxPair=        20
 NAB=    10 NAA=     0 NBB=     0.
 A-vector RMS=  1.3243363D-06 Max=  6.0020277D-06 conv= 1.00D-05.
 RLE energy=       -0.2309837785
 DE(Corr)= -0.23098387     E(CORR)=     -76.259184473     Delta= 3.56D-07
 NORM(A)=   0.10345750D+01
 Iteration Nr.   9
 **********************
 DD1Dir will call FoFMem   1 times, MxPair=        20
 NAB=    10 NAA=     0 NBB=     0.
 A-vector RMS=  2.8220388D-07 Max=  1.0962658D-06 conv= 1.00D-05.
 RLE energy=       -0.2309839995
 DE(Corr)= -0.23098401     E(CORR)=     -76.259184614     Delta=-1.41D-07
 NORM(A)=   0.10345752D+01
 Iteration Nr.  10
 **********************
 DD1Dir will call FoFMem   1 times, MxPair=        20
 NAB=    10 NAA=     0 NBB=     0.
 A-vector RMS=  1.3088283D-07 Max=  4.8127949D-07 conv= 1.00D-05.
 RLE energy=       -0.2309840375
 DE(Corr)= -0.23098402     E(CORR)=     -76.259184626     Delta=-1.16D-08
 NORM(A)=   0.10345753D+01
 CI/CC converged in   10 iterations to DelEn=-1.16D-08 Conv= 1.00D-07 ErrA1= 1.31D-07 Conv= 1.00D-05
 Wavefunction amplitudes converged. E(Corr)=     -76.259184626    
 Largest amplitude= 3.57D-02
 IPart=  2 IA=    3   10.95% done.
 IPart=  2 IA=    5   21.27% done.
 IPart=  3 IA=    7   30.95% done.
 IPart=  2 IA=    9   40.00% done.
 IPart=  4 IA=   12   52.38% done.
 IPart=  2 IA=   15   63.33% done.
 IPart=  3 IA=   18   72.86% done.
 IPart=  4 IA=   21   80.95% done.
 IPart=  1 IA=   26   91.27% done.
 Time for triples=        0.44 seconds.
 T4(CCSD)= -0.60414011D-02
 T5(CCSD)=  0.43936464D-03
 CCSD(T)= -0.76264786662D+02
 Discarding MO integrals.
 Leave Link  913 at Wed Feb  8 14:50:34 2023, MaxMem=   754974720 cpu:               1.6 elap:               0.5
 (Enter /opt/cluster/programs/g16-c.01/g16/l601.exe)
 Copying SCF densities to generalized density rwf, IOpCl= 0 IROHF=0.

 **********************************************************************

            Population analysis using the SCF Density.

 **********************************************************************

 Orbital symmetries:
       Occupied  (A') (A') (A') (A') (A")
       Virtual   (A') (A') (A') (A") (A') (A') (A') (A') (A') (A")
                 (A") (A') (A') (A') (A') (A') (A") (A') (A") (A')
                 (A') (A") (A') (A") (A') (A') (A") (A') (A') (A')
                 (A') (A") (A') (A") (A') (A')
 The electronic state is 1-A'.
 Alpha  occ. eigenvalues --  -20.58887  -1.35754  -0.66813  -0.61592  -0.51243
 Alpha virt. eigenvalues --    0.03308   0.05940   0.17167   0.19993   0.22100
 Alpha virt. eigenvalues --    0.23749   0.27539   0.35700   0.36947   0.39373
 Alpha virt. eigenvalues --    0.40635   0.55256   0.63198   0.66018   0.76430
 Alpha virt. eigenvalues --    0.95578   1.11525   1.12082   1.14493   1.27566
 Alpha virt. eigenvalues --    1.42419   1.45278   1.60536   1.97525   2.02912
 Alpha virt. eigenvalues --    2.10577   2.12050   2.46708   2.60956   2.66255
 Alpha virt. eigenvalues --    3.06917   3.67647   3.68348   3.69231   3.97498
 Alpha virt. eigenvalues --    4.25349
          Condensed to atoms (all electrons):
               1          2          3
     1  O    7.717617   0.303441   0.321284
     2  H    0.303441   0.501512  -0.000208
     3  H    0.321284  -0.000208   0.531836
 Mulliken charges:
               1
     1  O   -0.342342
     2  H    0.195254
     3  H    0.147088
 Sum of Mulliken charges =  -0.00000
 Mulliken charges with hydrogens summed into heavy atoms:
               1
     1  O   -0.000000
 Electronic spatial extent (au):  <R**2>=             19.8480
 Charge=              0.0000 electrons
 Dipole moment (field-independent basis, Debye):
    X=             -0.0326    Y=             -2.2949    Z=              0.0000  Tot=              2.2951
 Quadrupole moment (field-independent basis, Debye-Ang):
   XX=             -5.0547   YY=             -5.7016   ZZ=             -7.6209
   XY=             -0.0876   XZ=             -0.0000   YZ=             -0.0000
 Traceless Quadrupole moment (field-independent basis, Debye-Ang):
   XX=              1.0710   YY=              0.4241   ZZ=             -1.4952
   XY=             -0.0876   XZ=             -0.0000   YZ=             -0.0000
 Octapole moment (field-independent basis, Debye-Ang**2):
  XXX=             -0.0877  YYY=             -1.5571  ZZZ=              0.0000  XYY=              0.0812
  XXY=             -1.3116  XXZ=              0.0000  XZZ=             -0.0313  YZZ=             -0.3111
  YYZ=              0.0000  XYZ=              0.0000
 Hexadecapole moment (field-independent basis, Debye-Ang**3):
 XXXX=             -6.6989 YYYY=             -7.5646 ZZZZ=             -6.7873 XXXY=              0.0492
 XXXZ=              0.0000 YYYX=             -0.0123 YYYZ=              0.0000 ZZZX=              0.0000
 ZZZY=              0.0000 XXYY=             -1.8580 XXZZ=             -2.4298 YYZZ=             -2.5006
 XXYZ=             -0.0000 YYXZ=             -0.0000 ZZXY=              0.0353
 N-N= 9.002540556826D+00 E-N=-1.984326329495D+02  KE= 7.585694225026D+01
 Symmetry A'   KE= 7.139224022169D+01
 Symmetry A"   KE= 4.464702028575D+00
 Leave Link  601 at Wed Feb  8 14:50:35 2023, MaxMem=   754974720 cpu:               0.4 elap:               0.2
 (Enter /opt/cluster/programs/g16-c.01/g16/l9999.exe)
 Unable to Open any file for archive entry.
 1\1\GINC-NODE71\SP\RCCSD(T)-FC\Aug-CC-pVDZ\H2O1\BOITTIER\08-Feb-2023\0
 \\#P CCSD(T)/aug-cc-pVDZ scf(maxcycle=200)\\Gaussian input\\0,1\O,0,0.
 ,0.11751,0.\H,0,0.7973622306,-0.5007896629,0.\H,0,-0.5396070801,-0.675
 2731981,0.\\Version=ES64L-G16RevC.01\State=1-A'\HF=-76.0282006\MP2=-76
 .2519812\MP3=-76.2558016\MP4D=-76.2601151\MP4DQ=-76.257475\MP4SDQ=-76.
 2594214\CCSD=-76.2591846\CCSD(T)=-76.2647867\RMSD=7.351e-09\PG=CS [SG(
 H2O1)]\\@
 The archive entry for this job was punched.


 "PERFECTION IS NOT AN ACCIDENT"
         --  EAGLE ELECTRIC MANUFACTURING CO.,INC. NY
 Job cpu time:       0 days  0 hours  0 minutes 14.5 seconds.
 Elapsed time:       0 days  0 hours  0 minutes  6.8 seconds.
 File lengths (MBytes):  RWF=     15 Int=      0 D2E=      0 Chk=      1 Scr=      1
 Normal termination of Gaussian 16 at Wed Feb  8 14:50:35 2023.
