 Entering Gaussian System, Link 0=/opt/cluster/programs/g16-c.01/g16/g16
 Input=/scratch/boittier/jobs/tmp.7261757/gaussian_87_water_ccsdt_atz.com
 Output=/scratch/boittier/jobs/tmp.7261757/gaussian_87_water_ccsdt_atz.out
 Initial command:
 /opt/cluster/programs/g16-c.01/g16/l1.exe "/scratch/boittier/jobs/tmp.7261757/Gau-44861.inp" -scrdir="/scratch/boittier/jobs/tmp.7261757/"
 Entering Link 1 = /opt/cluster/programs/g16-c.01/g16/l1.exe PID=     44862.
  
 Copyright (c) 1988-2019, Gaussian, Inc.  All Rights Reserved.
  
 This is part of the Gaussian(R) 16 program.  It is based on
 the Gaussian(R) 09 system (copyright 2009, Gaussian, Inc.),
 the Gaussian(R) 03 system (copyright 2003, Gaussian, Inc.),
 the Gaussian(R) 98 system (copyright 1998, Gaussian, Inc.),
 the Gaussian(R) 94 system (copyright 1995, Gaussian, Inc.),
 the Gaussian 92(TM) system (copyright 1992, Gaussian, Inc.),
 the Gaussian 90(TM) system (copyright 1990, Gaussian, Inc.),
 the Gaussian 88(TM) system (copyright 1988, Gaussian, Inc.),
 the Gaussian 86(TM) system (copyright 1986, Carnegie Mellon
 University), and the Gaussian 82(TM) system (copyright 1983,
 Carnegie Mellon University). Gaussian is a federally registered
 trademark of Gaussian, Inc.
  
 This software contains proprietary and confidential information,
 including trade secrets, belonging to Gaussian, Inc.
  
 This software is provided under written license and may be
 used, copied, transmitted, or stored only in accord with that
 written license.
  
 The following legend is applicable only to US Government
 contracts under FAR:
  
                    RESTRICTED RIGHTS LEGEND
  
 Use, reproduction and disclosure by the US Government is
 subject to restrictions as set forth in subparagraphs (a)
 and (c) of the Commercial Computer Software - Restricted
 Rights clause in FAR 52.227-19.
  
 Gaussian, Inc.
 340 Quinnipiac St., Bldg. 40, Wallingford CT 06492
  
  
 ---------------------------------------------------------------
 Warning -- This program may not be used in any manner that
 competes with the business of Gaussian, Inc. or will provide
 assistance to any competitor of Gaussian, Inc.  The licensee
 of this program is prohibited from giving any competitor of
 Gaussian, Inc. access to this program.  By using this program,
 the user acknowledges that Gaussian, Inc. is engaged in the
 business of creating and licensing software in the field of
 computational chemistry and represents and warrants to the
 licensee that it is not a competitor of Gaussian, Inc. and that
 it will not use this program in any manner prohibited above.
 ---------------------------------------------------------------
  

 Cite this work as:
 Gaussian 16, Revision C.01,
 M. J. Frisch, G. W. Trucks, H. B. Schlegel, G. E. Scuseria, 
 M. A. Robb, J. R. Cheeseman, G. Scalmani, V. Barone, 
 G. A. Petersson, H. Nakatsuji, X. Li, M. Caricato, A. V. Marenich, 
 J. Bloino, B. G. Janesko, R. Gomperts, B. Mennucci, H. P. Hratchian, 
 J. V. Ortiz, A. F. Izmaylov, J. L. Sonnenberg, D. Williams-Young, 
 F. Ding, F. Lipparini, F. Egidi, J. Goings, B. Peng, A. Petrone, 
 T. Henderson, D. Ranasinghe, V. G. Zakrzewski, J. Gao, N. Rega, 
 G. Zheng, W. Liang, M. Hada, M. Ehara, K. Toyota, R. Fukuda, 
 J. Hasegawa, M. Ishida, T. Nakajima, Y. Honda, O. Kitao, H. Nakai, 
 T. Vreven, K. Throssell, J. A. Montgomery, Jr., J. E. Peralta, 
 F. Ogliaro, M. J. Bearpark, J. J. Heyd, E. N. Brothers, K. N. Kudin, 
 V. N. Staroverov, T. A. Keith, R. Kobayashi, J. Normand, 
 K. Raghavachari, A. P. Rendell, J. C. Burant, S. S. Iyengar, 
 J. Tomasi, M. Cossi, J. M. Millam, M. Klene, C. Adamo, R. Cammi, 
 J. W. Ochterski, R. L. Martin, K. Morokuma, O. Farkas, 
 J. B. Foresman, and D. J. Fox, Gaussian, Inc., Wallingford CT, 2019.
 
 ******************************************
 Gaussian 16:  ES64L-G16RevC.01  3-Jul-2019
                 8-Feb-2023 
 ******************************************
 %nproc=4
 Will use up to    4 processors via shared memory.
 %mem=5760MB
 %chk=gaussian_87_water_ccsdt_atz.chk
 ----------------------------------------
 #P CCSD(T)/aug-cc-pVTZ scf(maxcycle=200)
 ----------------------------------------
 1/38=1,172=1/1;
 2/12=2,17=6,18=5,40=1/2;
 3/5=16,6=1,7=10,11=9,25=1,30=1/1,2,3;
 4//1;
 5/5=2,7=200,38=5/2;
 8/6=4,9=120000,10=1/1,4;
 9/5=7,14=2/13;
 6/7=2,8=2,9=2,10=2/1;
 99/5=1,9=1/99;
 Leave Link    1 at Wed Feb  8 13:52:21 2023, MaxMem=   754974720 cpu:               0.1 elap:               0.0
 (Enter /opt/cluster/programs/g16-c.01/g16/l101.exe)
 --------------
 Gaussian input
 --------------
 Symbolic Z-matrix:
 Charge =  0 Multiplicity = 1
 O                     0.        0.11751   0. 
 H                     0.75785  -0.47015   0. 
 H                    -0.69264  -0.54576   0. 
 
 ITRead=  0  0  0
 MicOpt= -1 -1 -1
 NAtoms=      3 NQM=        3 NQMF=       0 NMMI=      0 NMMIF=      0
                NMic=       0 NMicF=      0.
                    Isotopes and Nuclear Properties:
 (Nuclear quadrupole moments (NQMom) in fm**2, nuclear magnetic moments (NMagM)
  in nuclear magnetons)

  Atom         1           2           3
 IAtWgt=          16           1           1
 AtmWgt=  15.9949146   1.0078250   1.0078250
 NucSpn=           0           1           1
 AtZEff=  -0.0000000  -0.0000000  -0.0000000
 NQMom=    0.0000000   0.0000000   0.0000000
 NMagM=    0.0000000   2.7928460   2.7928460
 AtZNuc=   8.0000000   1.0000000   1.0000000
 Leave Link  101 at Wed Feb  8 13:52:22 2023, MaxMem=   754974720 cpu:               0.3 elap:               0.2
 (Enter /opt/cluster/programs/g16-c.01/g16/l202.exe)
                          Input orientation:                          
 ---------------------------------------------------------------------
 Center     Atomic      Atomic             Coordinates (Angstroms)
 Number     Number       Type             X           Y           Z
 ---------------------------------------------------------------------
      1          8           0        0.000000    0.117510    0.000000
      2          1           0        0.757850   -0.470150    0.000000
      3          1           0       -0.692644   -0.545758    0.000000
 ---------------------------------------------------------------------
                    Distance matrix (angstroms):
                    1          2          3
     1  O    0.000000
     2  H    0.959000   0.000000
     3  H    0.959000   1.452463   0.000000
 Stoichiometry    H2O
 Framework group  C2V[C2(O),SGV(H2)]
 Deg. of freedom     2
 Full point group                 C2V     NOp   4
 Largest Abelian subgroup         C2V     NOp   4
 Largest concise Abelian subgroup C2      NOp   2
                         Standard orientation:                         
 ---------------------------------------------------------------------
 Center     Atomic      Atomic             Coordinates (Angstroms)
 Number     Number       Type             X           Y           Z
 ---------------------------------------------------------------------
      1          8           0       -0.000000    0.000000    0.125263
      2          1           0       -0.000000    0.726232   -0.501051
      3          1           0       -0.000000   -0.726232   -0.501051
 ---------------------------------------------------------------------
 Rotational constants (GHZ):         719.7204822         475.3918878         286.2904672
 Leave Link  202 at Wed Feb  8 13:52:22 2023, MaxMem=   754974720 cpu:               0.2 elap:               0.1
 (Enter /opt/cluster/programs/g16-c.01/g16/l301.exe)
 Standard basis: Aug-CC-pVTZ (5D, 7F)
 Ernie: Thresh=  0.10000D-02 Tol=  0.10000D-05 Strict=F.
 Ernie:  3 primitive shells out of 52 were deleted.
 There are    42 symmetry adapted cartesian basis functions of A1  symmetry.
 There are    12 symmetry adapted cartesian basis functions of A2  symmetry.
 There are    20 symmetry adapted cartesian basis functions of B1  symmetry.
 There are    31 symmetry adapted cartesian basis functions of B2  symmetry.
 There are    35 symmetry adapted basis functions of A1  symmetry.
 There are    12 symmetry adapted basis functions of A2  symmetry.
 There are    18 symmetry adapted basis functions of B1  symmetry.
 There are    27 symmetry adapted basis functions of B2  symmetry.
    92 basis functions,   126 primitive gaussians,   105 cartesian basis functions
     5 alpha electrons        5 beta electrons
       nuclear repulsion energy         9.1931477525 Hartrees.
 IExCor=    0 DFT=F Ex=HF Corr=None ExCW=0 ScaHFX=  1.000000
 ScaDFX=  1.000000  1.000000  1.000000  1.000000 ScalE2=  1.000000  1.000000
 IRadAn=      5 IRanWt=     -1 IRanGd=            0 ICorTp=0 IEmpDi=  4
 NAtoms=    3 NActive=    3 NUniq=    2 SFac= 2.25D+00 NAtFMM=   60 NAOKFM=F Big=F
 Integral buffers will be    131072 words long.
 Raffenetti 1 integral format.
 Two-electron integral symmetry is turned on.
 Leave Link  301 at Wed Feb  8 13:52:22 2023, MaxMem=   754974720 cpu:               0.1 elap:               0.1
 (Enter /opt/cluster/programs/g16-c.01/g16/l302.exe)
 NPDir=0 NMtPBC=     1 NCelOv=     1 NCel=       1 NClECP=     1 NCelD=      1
         NCelK=      1 NCelE2=     1 NClLst=     1 CellRange=     0.0.
 One-electron integrals computed using PRISM.
 One-electron integral symmetry used in STVInt
 NBasis=    92 RedAO= T EigKep=  3.94D-04  NBF=    35    12    18    27
 NBsUse=    92 1.00D-06 EigRej= -1.00D+00 NBFU=    35    12    18    27
 Leave Link  302 at Wed Feb  8 13:52:22 2023, MaxMem=   754974720 cpu:               0.7 elap:               0.2
 (Enter /opt/cluster/programs/g16-c.01/g16/l303.exe)
 DipDrv:  MaxL=1.
 Leave Link  303 at Wed Feb  8 13:52:22 2023, MaxMem=   754974720 cpu:               0.5 elap:               0.2
 (Enter /opt/cluster/programs/g16-c.01/g16/l401.exe)
 ExpMin= 2.53D-02 ExpMax= 1.53D+04 ExpMxC= 5.22D+02 IAcc=3 IRadAn=         5 AccDes= 0.00D+00
 Harris functional with IExCor=  205 and IRadAn=       5 diagonalized for initial guess.
 HarFok:  IExCor=  205 AccDes= 0.00D+00 IRadAn=         5 IDoV= 1 UseB2=F ITyADJ=14
 ICtDFT=  3500011 ScaDFX=  1.000000  1.000000  1.000000  1.000000
 FoFCou: FMM=F IPFlag=           0 FMFlag=      100000 FMFlg1=           0
         NFxFlg=           0 DoJE=T BraDBF=F KetDBF=T FulRan=T
         wScrn=  0.000000 ICntrl=       500 IOpCl=  0 I1Cent=   200000004 NGrid=           0
         NMat0=    1 NMatS0=      1 NMatT0=    0 NMatD0=    1 NMtDS0=    0 NMtDT0=    0
 Petite list used in FoFCou.
 Harris En= -76.1517682074136    
 JPrj=0 DoOrth=F DoCkMO=F.
 Initial guess orbital symmetries:
       Occupied  (A1) (A1) (B2) (A1) (B1)
       Virtual   (A1) (B2) (A1) (B1) (A1) (B2) (B2) (A1) (A2) (A1)
                 (B1) (A1) (B2) (B2) (B2) (A1) (A1) (B1) (A2) (A1)
                 (B1) (A1) (B1) (B2) (A2) (A1) (B2) (A1) (B2) (B1)
                 (B2) (A1) (A2) (B2) (A1) (A2) (B1) (A1) (B2) (B2)
                 (A1) (B1) (A2) (A1) (A1) (B1) (B2) (A1) (B2) (B1)
                 (A1) (B2) (A2) (B2) (A1) (B1) (A2) (A1) (B1) (B2)
                 (A1) (A2) (B1) (B2) (A1) (B2) (A2) (B2) (A1) (B2)
                 (B1) (A1) (A1) (B2) (B1) (A1) (B1) (B1) (B2) (A2)
                 (A1) (A2) (A1) (A1) (B2) (B2) (A1)
 The electronic state of the initial guess is 1-A1.
 Leave Link  401 at Wed Feb  8 13:52:23 2023, MaxMem=   754974720 cpu:               1.9 elap:               0.6
 (Enter /opt/cluster/programs/g16-c.01/g16/l502.exe)
 Keep R1 ints in memory in symmetry-blocked form, NReq=11496777.
 FoFCou: FMM=F IPFlag=           0 FMFlag=           0 FMFlg1=           0
         NFxFlg=           0 DoJE=F BraDBF=F KetDBF=F FulRan=T
         wScrn=  0.000000 ICntrl=       600 IOpCl=  0 I1Cent=           0 NGrid=           0
         NMat0=    1 NMatS0=   4278 NMatT0=    0 NMatD0=    1 NMtDS0=    0 NMtDT0=    0
 Petite list used in FoFCou.
 Closed shell SCF:
 Using DIIS extrapolation, IDIIS=  1040.
 NGot=   754974720 LenX=   752607631 LenY=   752596165
 Requested convergence on RMS density matrix=1.00D-08 within 200 cycles.
 Requested convergence on MAX density matrix=1.00D-06.
 Requested convergence on             energy=1.00D-06.
 No special actions if energy rises.

 Cycle   1  Pass 1  IDiag  1:
 E= -75.9701449635020    
 DIIS: error= 5.94D-02 at cycle   1 NSaved=   1.
 NSaved= 1 IEnMin= 1 EnMin= -75.9701449635020     IErMin= 1 ErrMin= 5.94D-02
 ErrMax= 5.94D-02  0.00D+00 EMaxC= 1.00D-01 BMatC= 2.03D-01 BMatP= 2.03D-01
 IDIUse=3 WtCom= 4.06D-01 WtEn= 5.94D-01
 Coeff-Com:  0.100D+01
 Coeff-En:   0.100D+01
 Coeff:      0.100D+01
 Gap=     0.453 Goal=   None    Shift=    0.000
 GapD=    0.453 DampG=2.000 DampE=0.500 DampFc=1.0000 IDamp=-1.
 RMSDP=2.16D-03 MaxDP=4.85D-02              OVMax= 1.25D-01

 Cycle   2  Pass 1  IDiag  1:
 E= -76.0219410400396     Delta-E=       -0.051796076538 Rises=F Damp=F
 DIIS: error= 3.92D-02 at cycle   2 NSaved=   2.
 NSaved= 2 IEnMin= 2 EnMin= -76.0219410400396     IErMin= 2 ErrMin= 3.92D-02
 ErrMax= 3.92D-02  0.00D+00 EMaxC= 1.00D-01 BMatC= 5.98D-02 BMatP= 2.03D-01
 IDIUse=3 WtCom= 6.08D-01 WtEn= 3.92D-01
 Coeff-Com:  0.324D+00 0.676D+00
 Coeff-En:   0.206D+00 0.794D+00
 Coeff:      0.278D+00 0.722D+00
 Gap=     0.568 Goal=   None    Shift=    0.000
 RMSDP=1.32D-03 MaxDP=3.55D-02 DE=-5.18D-02 OVMax= 6.53D-02

 Cycle   3  Pass 1  IDiag  1:
 E= -76.0572843890474     Delta-E=       -0.035343349008 Rises=F Damp=F
 DIIS: error= 8.14D-03 at cycle   3 NSaved=   3.
 NSaved= 3 IEnMin= 3 EnMin= -76.0572843890474     IErMin= 3 ErrMin= 8.14D-03
 ErrMax= 8.14D-03  0.00D+00 EMaxC= 1.00D-01 BMatC= 2.88D-03 BMatP= 5.98D-02
 IDIUse=3 WtCom= 9.19D-01 WtEn= 8.14D-02
 Coeff-Com: -0.309D-01 0.149D+00 0.882D+00
 Coeff-En:   0.000D+00 0.000D+00 0.100D+01
 Coeff:     -0.284D-01 0.136D+00 0.892D+00
 Gap=     0.538 Goal=   None    Shift=    0.000
 RMSDP=2.21D-04 MaxDP=4.31D-03 DE=-3.53D-02 OVMax= 1.29D-02

 Cycle   4  Pass 1  IDiag  1:
 E= -76.0590821882738     Delta-E=       -0.001797799226 Rises=F Damp=F
 DIIS: error= 6.69D-04 at cycle   4 NSaved=   4.
 NSaved= 4 IEnMin= 4 EnMin= -76.0590821882738     IErMin= 4 ErrMin= 6.69D-04
 ErrMax= 6.69D-04  0.00D+00 EMaxC= 1.00D-01 BMatC= 1.39D-05 BMatP= 2.88D-03
 IDIUse=3 WtCom= 9.93D-01 WtEn= 6.69D-03
 Coeff-Com:  0.708D-02-0.558D-01-0.248D+00 0.130D+01
 Coeff-En:   0.000D+00 0.000D+00 0.000D+00 0.100D+01
 Coeff:      0.703D-02-0.554D-01-0.246D+00 0.129D+01
 Gap=     0.540 Goal=   None    Shift=    0.000
 RMSDP=3.73D-05 MaxDP=7.22D-04 DE=-1.80D-03 OVMax= 2.16D-03

 Cycle   5  Pass 1  IDiag  1:
 E= -76.0591057595358     Delta-E=       -0.000023571262 Rises=F Damp=F
 DIIS: error= 1.86D-04 at cycle   5 NSaved=   5.
 NSaved= 5 IEnMin= 5 EnMin= -76.0591057595358     IErMin= 5 ErrMin= 1.86D-04
 ErrMax= 1.86D-04  0.00D+00 EMaxC= 1.00D-01 BMatC= 6.46D-07 BMatP= 1.39D-05
 IDIUse=3 WtCom= 9.98D-01 WtEn= 1.86D-03
 Coeff-Com:  0.116D-03 0.316D-02 0.116D-01-0.290D+00 0.128D+01
 Coeff-En:   0.000D+00 0.000D+00 0.000D+00 0.000D+00 0.100D+01
 Coeff:      0.116D-03 0.315D-02 0.116D-01-0.289D+00 0.127D+01
 Gap=     0.541 Goal=   None    Shift=    0.000
 RMSDP=1.06D-05 MaxDP=2.32D-04 DE=-2.36D-05 OVMax= 7.10D-04

 Cycle   6  Pass 1  IDiag  1:
 E= -76.0591073227319     Delta-E=       -0.000001563196 Rises=F Damp=F
 DIIS: error= 2.52D-05 at cycle   6 NSaved=   6.
 NSaved= 6 IEnMin= 6 EnMin= -76.0591073227319     IErMin= 6 ErrMin= 2.52D-05
 ErrMax= 2.52D-05  0.00D+00 EMaxC= 1.00D-01 BMatC= 1.87D-08 BMatP= 6.46D-07
 IDIUse=1 WtCom= 1.00D+00 WtEn= 0.00D+00
 Coeff-Com: -0.236D-03 0.948D-03 0.374D-02 0.324D-01-0.354D+00 0.132D+01
 Coeff:     -0.236D-03 0.948D-03 0.374D-02 0.324D-01-0.354D+00 0.132D+01
 Gap=     0.541 Goal=   None    Shift=    0.000
 RMSDP=2.09D-06 MaxDP=5.26D-05 DE=-1.56D-06 OVMax= 1.43D-04

 Cycle   7  Pass 1  IDiag  1:
 E= -76.0591073760728     Delta-E=       -0.000000053341 Rises=F Damp=F
 DIIS: error= 3.93D-06 at cycle   7 NSaved=   7.
 NSaved= 7 IEnMin= 7 EnMin= -76.0591073760728     IErMin= 7 ErrMin= 3.93D-06
 ErrMax= 3.93D-06  0.00D+00 EMaxC= 1.00D-01 BMatC= 7.16D-10 BMatP= 1.87D-08
 IDIUse=1 WtCom= 1.00D+00 WtEn= 0.00D+00
 Coeff-Com:  0.267D-04-0.304D-03-0.128D-02 0.127D-01-0.201D-01-0.141D+00
 Coeff-Com:  0.115D+01
 Coeff:      0.267D-04-0.304D-03-0.128D-02 0.127D-01-0.201D-01-0.141D+00
 Coeff:      0.115D+01
 Gap=     0.541 Goal=   None    Shift=    0.000
 RMSDP=3.00D-07 MaxDP=6.02D-06 DE=-5.33D-08 OVMax= 2.13D-05

 Cycle   8  Pass 1  IDiag  1:
 E= -76.0591073775438     Delta-E=       -0.000000001471 Rises=F Damp=F
 DIIS: error= 8.79D-07 at cycle   8 NSaved=   8.
 NSaved= 8 IEnMin= 8 EnMin= -76.0591073775438     IErMin= 8 ErrMin= 8.79D-07
 ErrMax= 8.79D-07  0.00D+00 EMaxC= 1.00D-01 BMatC= 3.65D-11 BMatP= 7.16D-10
 IDIUse=1 WtCom= 1.00D+00 WtEn= 0.00D+00
 Coeff-Com:  0.656D-05 0.153D-04 0.107D-03-0.455D-02 0.219D-01-0.337D-01
 Coeff-Com: -0.282D+00 0.130D+01
 Coeff:      0.656D-05 0.153D-04 0.107D-03-0.455D-02 0.219D-01-0.337D-01
 Coeff:     -0.282D+00 0.130D+01
 Gap=     0.541 Goal=   None    Shift=    0.000
 RMSDP=9.31D-08 MaxDP=1.80D-06 DE=-1.47D-09 OVMax= 5.70D-06

 Cycle   9  Pass 1  IDiag  1:
 E= -76.0591073776370     Delta-E=       -0.000000000093 Rises=F Damp=F
 DIIS: error= 1.49D-07 at cycle   9 NSaved=   9.
 NSaved= 9 IEnMin= 9 EnMin= -76.0591073776370     IErMin= 9 ErrMin= 1.49D-07
 ErrMax= 1.49D-07  0.00D+00 EMaxC= 1.00D-01 BMatC= 7.13D-13 BMatP= 3.65D-11
 IDIUse=1 WtCom= 1.00D+00 WtEn= 0.00D+00
 Coeff-Com: -0.186D-05 0.148D-05-0.813D-05 0.838D-03-0.432D-02 0.882D-02
 Coeff-Com:  0.536D-01-0.347D+00 0.129D+01
 Coeff:     -0.186D-05 0.148D-05-0.813D-05 0.838D-03-0.432D-02 0.882D-02
 Coeff:      0.536D-01-0.347D+00 0.129D+01
 Gap=     0.541 Goal=   None    Shift=    0.000
 RMSDP=1.61D-08 MaxDP=3.49D-07 DE=-9.32D-11 OVMax= 7.65D-07

 Cycle  10  Pass 1  IDiag  1:
 E= -76.0591073776387     Delta-E=       -0.000000000002 Rises=F Damp=F
 DIIS: error= 3.30D-08 at cycle  10 NSaved=  10.
 NSaved=10 IEnMin=10 EnMin= -76.0591073776387     IErMin=10 ErrMin= 3.30D-08
 ErrMax= 3.30D-08  0.00D+00 EMaxC= 1.00D-01 BMatC= 2.93D-14 BMatP= 7.13D-13
 IDIUse=1 WtCom= 1.00D+00 WtEn= 0.00D+00
 Coeff-Com:  0.565D-06-0.111D-05 0.104D-08-0.207D-03 0.111D-02-0.272D-02
 Coeff-Com: -0.110D-01 0.933D-01-0.514D+00 0.143D+01
 Coeff:      0.565D-06-0.111D-05 0.104D-08-0.207D-03 0.111D-02-0.272D-02
 Coeff:     -0.110D-01 0.933D-01-0.514D+00 0.143D+01
 Gap=     0.541 Goal=   None    Shift=    0.000
 RMSDP=3.89D-09 MaxDP=9.38D-08 DE=-1.68D-12 OVMax= 2.04D-07

 SCF Done:  E(RHF) =  -76.0591073776     A.U. after   10 cycles
            NFock= 10  Conv=0.39D-08     -V/T= 2.0013
 KE= 7.596220419947D+01 PE=-1.989858241479D+02 EE= 3.777136481836D+01
 Leave Link  502 at Wed Feb  8 13:52:34 2023, MaxMem=   754974720 cpu:              22.7 elap:              11.4
 (Enter /opt/cluster/programs/g16-c.01/g16/l801.exe)
 Windowed orbitals will be sorted by symmetry type.
 ExpMin= 2.53D-02 ExpMax= 1.53D+04 ExpMxC= 5.22D+02 IAcc=3 IRadAn=         5 AccDes= 0.00D+00
 HarFok:  IExCor=  205 AccDes= 0.00D+00 IRadAn=         5 IDoV=-2 UseB2=F ITyADJ=14
 ICtDFT= 12500011 ScaDFX=  1.000000  1.000000  1.000000  1.000000
 Largest valence mixing into a core orbital is  1.11D-04
 Largest core mixing into a valence orbital is  1.70D-05
 Range of M.O.s used for correlation:     2    92
 NBasis=    92 NAE=     5 NBE=     5 NFC=     1 NFV=     0
 NROrb=     91 NOA=     4 NOB=     4 NVA=    87 NVB=    87

 **** Warning!!: The largest alpha MO coefficient is  0.15682011D+02

 Leave Link  801 at Wed Feb  8 13:52:35 2023, MaxMem=   754974720 cpu:               0.8 elap:               0.4
 (Enter /opt/cluster/programs/g16-c.01/g16/l804.exe)
 Closed-shell transformation, MDV=   754974720 ITran=4 ISComp=2.
 Unit  1 TFree=        277513 TCopy=        242092.
 Semi-Direct transformation.
 ModeAB=           4 MOrb=             4 LenV=     754589018
 LASXX=       368428 LTotXX=      368428 LenRXX=      751146
 LTotAB=      382718 MaxLAS=     1379560 LenRXY=           0
 NonZer=     1119574 LenScr=     2357760 LnRSAI=     1379560
 LnScr1=     2758656 LExtra=           0 Total=      7247122
 MaxDsk=          -1 SrtSym=           T ITran=            4
 DoSDTr:  NPSUse=  4
 JobTyp=0 Pass  1:  I=   1 to   4.
 (rs|ai) integrals will be sorted in core.
 Complete sort for first half transformation.
 First half transformation complete.
 Complete sort for second half transformation.
 Second half transformation complete.
 Spin components of T(2) and E(2):
     alpha-alpha T2 =       0.8178608820D-02 E2=     -0.3266717512D-01
     alpha-beta  T2 =       0.4744268964D-01 E2=     -0.2037118539D+00
     beta-beta   T2 =       0.8178608820D-02 E2=     -0.3266717512D-01
 ANorm=    0.1031406761D+01
 E2 =    -0.2690462041D+00 EUMP2 =    -0.76328153581762D+02
 Leave Link  804 at Wed Feb  8 13:52:35 2023, MaxMem=   754974720 cpu:               1.4 elap:               0.4
 (Enter /opt/cluster/programs/g16-c.01/g16/l913.exe)
 CIDS:  MDV=   754974720.
 Frozen-core window:  NFC=   1 NFV=   0.
 IFCWin=0 IBDFC=1 NFBD=     0     0 NFCmp=     0     0 NFFFC=     0     0
 Using DD3R+UMP44R for 1st iteration.
 Using DD4RQ for 2nd and later iterations.
 Keep R2 and R3 ints in memory in symmetry-blocked form, NReq=11500115.
 FoFCou: FMM=F IPFlag=           0 FMFlag=           0 FMFlg1=           0
         NFxFlg=           0 DoJE=F BraDBF=F KetDBF=F FulRan=T
         wScrn=  0.000000 ICntrl=       600 IOpCl=  0 I1Cent=           0 NGrid=           0
         NMat0=    1 NMatS0=   4278 NMatT0=    0 NMatD0=    1 NMtDS0=    0 NMtDT0=    0
 Petite list used in FoFCou.
 CIDS: In Core Option IDoMem=           1.
 CCSD(T)
 =======
 Iterations=  50 Convergence= 0.100D-06
 Produce multiple copies of IABC intergrals
 Iteration Nr.   1
 **********************
 DD1Dir will call FoFMem   1 times, MxPair=        20
 NAB=    10 NAA=     0 NBB=     0.
 MP4(R+Q)=  0.40897161D-02
 Maximum subspace dimension=  5
 A-vector RMS=  2.8694673D-03 Max=  1.2169482D-02 conv= 1.00D-05.
 RLE energy=       -0.2674621305
 E3=       -0.25383296D-02        EUMP3=      -0.76330691911D+02
 E4(DQ)=   -0.63202873D-03        UMP4(DQ)=   -0.76331323940D+02
 E4(SDQ)=  -0.25485728D-02        UMP4(SDQ)=  -0.76333240484D+02
 VARIATIONAL ENERGIES WITH THE FIRST-ORDER WAVEFUNCTION:
 DE(Corr)= -0.26745276     E(Corr)=     -76.326560133    
 NORM(A)=   0.10311767D+01
 Iteration Nr.   2
 **********************
 DD1Dir will call FoFMem   1 times, MxPair=        20
 NAB=    10 NAA=     0 NBB=     0.
 A-vector RMS=  3.0623121D-04 Max=  2.1892147D-03 conv= 1.00D-05.
 RLE energy=       -0.2732909647
 DE(Corr)= -0.27290839     E(CORR)=     -76.332015773     Delta=-5.46D-03
 NORM(A)=   0.10333056D+01
 Iteration Nr.   3
 **********************
 DD1Dir will call FoFMem   1 times, MxPair=        20
 NAB=    10 NAA=     0 NBB=     0.
 A-vector RMS=  3.9842954D-04 Max=  2.2245376D-03 conv= 1.00D-05.
 RLE energy=       -0.2736037507
 DE(Corr)= -0.27322638     E(CORR)=     -76.332333761     Delta=-3.18D-04
 NORM(A)=   0.10337250D+01
 Iteration Nr.   4
 **********************
 DD1Dir will call FoFMem   1 times, MxPair=        20
 NAB=    10 NAA=     0 NBB=     0.
 A-vector RMS=  6.1715704D-05 Max=  3.7064286D-04 conv= 1.00D-05.
 RLE energy=       -0.2736376047
 DE(Corr)= -0.27360944     E(CORR)=     -76.332716822     Delta=-3.83D-04
 NORM(A)=   0.10338374D+01
 Iteration Nr.   5
 **********************
 DD1Dir will call FoFMem   1 times, MxPair=        20
 NAB=    10 NAA=     0 NBB=     0.
 A-vector RMS=  3.0038166D-05 Max=  1.9185663D-04 conv= 1.00D-05.
 RLE energy=       -0.2736497070
 DE(Corr)= -0.27364433     E(CORR)=     -76.332751706     Delta=-3.49D-05
 NORM(A)=   0.10338598D+01
 Iteration Nr.   6
 **********************
 DD1Dir will call FoFMem   1 times, MxPair=        20
 NAB=    10 NAA=     0 NBB=     0.
 A-vector RMS=  7.0275864D-06 Max=  4.1950995D-05 conv= 1.00D-05.
 RLE energy=       -0.2736461075
 DE(Corr)= -0.27364701     E(CORR)=     -76.332754389     Delta=-2.68D-06
 NORM(A)=   0.10338617D+01
 Iteration Nr.   7
 **********************
 DD1Dir will call FoFMem   1 times, MxPair=        20
 NAB=    10 NAA=     0 NBB=     0.
 A-vector RMS=  2.3198578D-06 Max=  1.1090213D-05 conv= 1.00D-05.
 RLE energy=       -0.2736461282
 DE(Corr)= -0.27364700     E(CORR)=     -76.332754380     Delta= 8.56D-09
 NORM(A)=   0.10338623D+01
 Iteration Nr.   8
 **********************
 DD1Dir will call FoFMem   1 times, MxPair=        20
 NAB=    10 NAA=     0 NBB=     0.
 A-vector RMS=  8.9552175D-07 Max=  5.4482359D-06 conv= 1.00D-05.
 RLE energy=       -0.2736466573
 DE(Corr)= -0.27364676     E(CORR)=     -76.332754136     Delta= 2.45D-07
 NORM(A)=   0.10338627D+01
 Iteration Nr.   9
 **********************
 DD1Dir will call FoFMem   1 times, MxPair=        20
 NAB=    10 NAA=     0 NBB=     0.
 A-vector RMS=  1.9892334D-07 Max=  1.0188343D-06 conv= 1.00D-05.
 RLE energy=       -0.2736467497
 DE(Corr)= -0.27364677     E(CORR)=     -76.332754143     Delta=-7.08D-09
 NORM(A)=   0.10338629D+01
 CI/CC converged in    9 iterations to DelEn=-7.08D-09 Conv= 1.00D-07 ErrA1= 1.99D-07 Conv= 1.00D-05
 Wavefunction amplitudes converged. E(Corr)=     -76.332754143    
 Largest amplitude= 2.25D-02
 IPart=  4 IA=    6   11.23% done.
 IPart=  3 IA=   11   21.79% done.
 IPart=  1 IA=   16   31.68% done.
 IPart=  2 IA=   21   40.90% done.
 IPart=  3 IA=   27   51.08% done.
 IPart=  2 IA=   33   60.30% done.
 IPart=  4 IA=   41   71.10% done.
 IPart=  2 IA=   49   80.19% done.
 IPart=  2 IA=   61   90.62% done.
 Time for triples=        5.83 seconds.
 T4(CCSD)= -0.90162686D-02
 T5(CCSD)=  0.32481840D-03
 CCSD(T)= -0.76341445593D+02
 Discarding MO integrals.
 Leave Link  913 at Wed Feb  8 13:52:38 2023, MaxMem=   754974720 cpu:               9.9 elap:               2.6
 (Enter /opt/cluster/programs/g16-c.01/g16/l601.exe)
 Copying SCF densities to generalized density rwf, IOpCl= 0 IROHF=0.

 **********************************************************************

            Population analysis using the SCF Density.

 **********************************************************************

 Orbital symmetries:
       Occupied  (A1) (A1) (B2) (A1) (B1)
       Virtual   (A1) (B2) (A1) (B1) (A1) (B2) (B2) (A1) (A2) (B1)
                 (A1) (B2) (A1) (B2) (B2) (A1) (A1) (A2) (B1) (A1)
                 (B1) (A1) (B1) (B2) (A2) (B2) (A1) (A1) (B2) (B1)
                 (B2) (A2) (A1) (B2) (A1) (A2) (B1) (A1) (B2) (B2)
                 (A1) (B1) (A2) (A1) (A1) (B1) (B2) (A1) (B2) (B1)
                 (B2) (A1) (A2) (B2) (A1) (A2) (B1) (A1) (B1) (B2)
                 (A1) (A2) (B1) (B2) (A1) (B2) (A2) (B2) (B2) (A1)
                 (B1) (A1) (A1) (B2) (B1) (A1) (B1) (B2) (B1) (A2)
                 (A2) (A1) (A1) (A1) (B2) (B2) (A1)
 The electronic state is 1-A1.
 Alpha  occ. eigenvalues --  -20.57005  -1.35721  -0.70464  -0.59660  -0.51196
 Alpha virt. eigenvalues --    0.02901   0.04806   0.13499   0.15958   0.17631
 Alpha virt. eigenvalues --    0.18449   0.22552   0.24581   0.26754   0.29442
 Alpha virt. eigenvalues --    0.30699   0.36704   0.43719   0.46619   0.59581
 Alpha virt. eigenvalues --    0.66422   0.70371   0.72723   0.73007   0.83723
 Alpha virt. eigenvalues --    0.85312   0.89460   0.91058   0.91292   0.92472
 Alpha virt. eigenvalues --    0.93703   0.95097   1.02078   1.04238   1.08035
 Alpha virt. eigenvalues --    1.10620   1.18145   1.19112   1.26183   1.49445
 Alpha virt. eigenvalues --    1.51120   1.56921   1.81207   1.86853   1.97178
 Alpha virt. eigenvalues --    2.13134   2.26672   2.31558   2.33233   2.41557
 Alpha virt. eigenvalues --    2.42445   2.44735   2.49339   2.66544   2.69551
 Alpha virt. eigenvalues --    2.76662   2.79594   2.88476   3.67200   3.68327
 Alpha virt. eigenvalues --    4.05402   4.07937   4.09013   4.20982   4.28465
 Alpha virt. eigenvalues --    4.35545   4.37899   4.41330   4.55334   4.75145
 Alpha virt. eigenvalues --    4.87321   5.14051   5.18932   5.25342   5.31150
 Alpha virt. eigenvalues --    5.55000   5.60707   6.22500   6.48807   6.70679
 Alpha virt. eigenvalues --    6.97379   7.12931   7.21047   7.26029   7.32589
 Alpha virt. eigenvalues --    7.34387   7.38125   7.52463   7.81868   7.97003
 Alpha virt. eigenvalues --    8.85299  15.77636
          Condensed to atoms (all electrons):
               1          2          3
     1  O    7.907340   0.267641   0.267641
     2  H    0.267641   0.488630   0.022418
     3  H    0.267641   0.022418   0.488630
 Mulliken charges:
               1
     1  O   -0.442623
     2  H    0.221311
     3  H    0.221311
 Sum of Mulliken charges =  -0.00000
 Mulliken charges with hydrogens summed into heavy atoms:
               1
     1  O   -0.000000
 Electronic spatial extent (au):  <R**2>=             19.4812
 Charge=              0.0000 electrons
 Dipole moment (field-independent basis, Debye):
    X=             -0.0000    Y=             -0.0000    Z=             -2.0810  Tot=              2.0810
 Quadrupole moment (field-independent basis, Debye-Ang):
   XX=             -7.5530   YY=             -4.5102   ZZ=             -6.0586
   XY=              0.0000   XZ=              0.0000   YZ=             -0.0000
 Traceless Quadrupole moment (field-independent basis, Debye-Ang):
   XX=             -1.5124   YY=              1.5304   ZZ=             -0.0180
   XY=              0.0000   XZ=              0.0000   YZ=             -0.0000
 Octapole moment (field-independent basis, Debye-Ang**2):
  XXX=              0.0000  YYY=             -0.0000  ZZZ=             -1.2658  XYY=             -0.0000
  XXY=              0.0000  XXZ=             -0.2646  XZZ=              0.0000  YZZ=             -0.0000
  YYZ=             -1.3792  XYZ=             -0.0000
 Hexadecapole moment (field-independent basis, Debye-Ang**3):
 XXXX=             -6.7029 YYYY=             -6.1567 ZZZZ=             -7.2545 XXXY=             -0.0000
 XXXZ=             -0.0000 YYYX=             -0.0000 YYYZ=             -0.0000 ZZZX=             -0.0000
 ZZZY=             -0.0000 XXYY=             -2.4162 XXZZ=             -2.3917 YYZZ=             -1.8131
 XXYZ=             -0.0000 YYXZ=              0.0000 ZZXY=              0.0000
 N-N= 9.193147752451D+00 E-N=-1.989858241533D+02  KE= 7.596220419947D+01
 Symmetry A1   KE= 6.788693630476D+01
 Symmetry A2   KE= 2.794822898797D-20
 Symmetry B1   KE= 4.472410735825D+00
 Symmetry B2   KE= 3.602857158885D+00
 Leave Link  601 at Wed Feb  8 13:52:38 2023, MaxMem=   754974720 cpu:               1.4 elap:               0.7
 (Enter /opt/cluster/programs/g16-c.01/g16/l9999.exe)
 Unable to Open any file for archive entry.
 1\1\GINC-NODE59\SP\RCCSD(T)-FC\Aug-CC-pVTZ\H2O1\BOITTIER\08-Feb-2023\0
 \\#P CCSD(T)/aug-cc-pVTZ scf(maxcycle=200)\\Gaussian input\\0,1\O,0,0.
 ,0.11751,0.\H,0,0.7578497316,-0.4701504329,0.\H,0,-0.6926442659,-0.545
 7583627,0.\\Version=ES64L-G16RevC.01\State=1-A1\HF=-76.0591074\MP2=-76
 .3281536\MP3=-76.3306919\MP4D=-76.3354137\MP4DQ=-76.3313239\MP4SDQ=-76
 .3332405\CCSD=-76.3327541\CCSD(T)=-76.3414456\RMSD=3.895e-09\PG=C02V [
 C2(O1),SGV(H2)]\\@
 The archive entry for this job was punched.


 LIVE PURE, SPEAK TRUE, RIGHT WRONG, FOLLOW THE KING...
 ELSE, WHEREFORE BORN......
           IDYLLS OF THE KING, TENNYSON
 Job cpu time:       0 days  0 hours  0 minutes 40.5 seconds.
 Elapsed time:       0 days  0 hours  0 minutes 17.1 seconds.
 File lengths (MBytes):  RWF=     64 Int=      0 D2E=      0 Chk=      2 Scr=      1
 Normal termination of Gaussian 16 at Wed Feb  8 13:52:39 2023.
