 Entering Gaussian System, Link 0=/opt/cluster/programs/g16-c.01/g16/g16
 Input=/scratch/boittier/jobs/tmp.7262074/gaussian_131_water_wb97_ptz.com
 Output=/scratch/boittier/jobs/tmp.7262074/gaussian_131_water_wb97_ptz.out
 Initial command:
 /opt/cluster/programs/g16-c.01/g16/l1.exe "/scratch/boittier/jobs/tmp.7262074/Gau-52867.inp" -scrdir="/scratch/boittier/jobs/tmp.7262074/"
 Entering Link 1 = /opt/cluster/programs/g16-c.01/g16/l1.exe PID=     52868.
  
 Copyright (c) 1988-2019, Gaussian, Inc.  All Rights Reserved.
  
 This is part of the Gaussian(R) 16 program.  It is based on
 the Gaussian(R) 09 system (copyright 2009, Gaussian, Inc.),
 the Gaussian(R) 03 system (copyright 2003, Gaussian, Inc.),
 the Gaussian(R) 98 system (copyright 1998, Gaussian, Inc.),
 the Gaussian(R) 94 system (copyright 1995, Gaussian, Inc.),
 the Gaussian 92(TM) system (copyright 1992, Gaussian, Inc.),
 the Gaussian 90(TM) system (copyright 1990, Gaussian, Inc.),
 the Gaussian 88(TM) system (copyright 1988, Gaussian, Inc.),
 the Gaussian 86(TM) system (copyright 1986, Carnegie Mellon
 University), and the Gaussian 82(TM) system (copyright 1983,
 Carnegie Mellon University). Gaussian is a federally registered
 trademark of Gaussian, Inc.
  
 This software contains proprietary and confidential information,
 including trade secrets, belonging to Gaussian, Inc.
  
 This software is provided under written license and may be
 used, copied, transmitted, or stored only in accord with that
 written license.
  
 The following legend is applicable only to US Government
 contracts under FAR:
  
                    RESTRICTED RIGHTS LEGEND
  
 Use, reproduction and disclosure by the US Government is
 subject to restrictions as set forth in subparagraphs (a)
 and (c) of the Commercial Computer Software - Restricted
 Rights clause in FAR 52.227-19.
  
 Gaussian, Inc.
 340 Quinnipiac St., Bldg. 40, Wallingford CT 06492
  
  
 ---------------------------------------------------------------
 Warning -- This program may not be used in any manner that
 competes with the business of Gaussian, Inc. or will provide
 assistance to any competitor of Gaussian, Inc.  The licensee
 of this program is prohibited from giving any competitor of
 Gaussian, Inc. access to this program.  By using this program,
 the user acknowledges that Gaussian, Inc. is engaged in the
 business of creating and licensing software in the field of
 computational chemistry and represents and warrants to the
 licensee that it is not a competitor of Gaussian, Inc. and that
 it will not use this program in any manner prohibited above.
 ---------------------------------------------------------------
  

 Cite this work as:
 Gaussian 16, Revision C.01,
 M. J. Frisch, G. W. Trucks, H. B. Schlegel, G. E. Scuseria, 
 M. A. Robb, J. R. Cheeseman, G. Scalmani, V. Barone, 
 G. A. Petersson, H. Nakatsuji, X. Li, M. Caricato, A. V. Marenich, 
 J. Bloino, B. G. Janesko, R. Gomperts, B. Mennucci, H. P. Hratchian, 
 J. V. Ortiz, A. F. Izmaylov, J. L. Sonnenberg, D. Williams-Young, 
 F. Ding, F. Lipparini, F. Egidi, J. Goings, B. Peng, A. Petrone, 
 T. Henderson, D. Ranasinghe, V. G. Zakrzewski, J. Gao, N. Rega, 
 G. Zheng, W. Liang, M. Hada, M. Ehara, K. Toyota, R. Fukuda, 
 J. Hasegawa, M. Ishida, T. Nakajima, Y. Honda, O. Kitao, H. Nakai, 
 T. Vreven, K. Throssell, J. A. Montgomery, Jr., J. E. Peralta, 
 F. Ogliaro, M. J. Bearpark, J. J. Heyd, E. N. Brothers, K. N. Kudin, 
 V. N. Staroverov, T. A. Keith, R. Kobayashi, J. Normand, 
 K. Raghavachari, A. P. Rendell, J. C. Burant, S. S. Iyengar, 
 J. Tomasi, M. Cossi, J. M. Millam, M. Klene, C. Adamo, R. Cammi, 
 J. W. Ochterski, R. L. Martin, K. Morokuma, O. Farkas, 
 J. B. Foresman, and D. J. Fox, Gaussian, Inc., Wallingford CT, 2019.
 
 ******************************************
 Gaussian 16:  ES64L-G16RevC.01  3-Jul-2019
                 8-Feb-2023 
 ******************************************
 %nproc=4
 Will use up to    4 processors via shared memory.
 %mem=5760MB
 %chk=gaussian_131_water_wb97_ptz.chk
 ------------------------------------
 #P wB97XD/6-311g** scf(maxcycle=200)
 ------------------------------------
 1/38=1,172=1/1;
 2/12=2,17=6,18=5,40=1/2;
 3/5=4,6=6,7=101,11=2,25=1,30=1,74=-58/1,2,3;
 4//1;
 5/5=2,7=200,38=5/2;
 6/7=2,8=2,9=2,10=2,28=1/1;
 99/5=1,9=1/99;
 Leave Link    1 at Wed Feb  8 14:42:16 2023, MaxMem=   754974720 cpu:               0.1 elap:               0.0
 (Enter /opt/cluster/programs/g16-c.01/g16/l101.exe)
 --------------
 Gaussian input
 --------------
 Symbolic Z-matrix:
 Charge =  0 Multiplicity = 1
 O                     0.        0.11751   0. 
 H                     0.79736  -0.50079   0. 
 H                    -0.73764  -0.41369   0. 
 
 ITRead=  0  0  0
 MicOpt= -1 -1 -1
 NAtoms=      3 NQM=        3 NQMF=       0 NMMI=      0 NMMIF=      0
                NMic=       0 NMicF=      0.
                    Isotopes and Nuclear Properties:
 (Nuclear quadrupole moments (NQMom) in fm**2, nuclear magnetic moments (NMagM)
  in nuclear magnetons)

  Atom         1           2           3
 IAtWgt=          16           1           1
 AtmWgt=  15.9949146   1.0078250   1.0078250
 NucSpn=           0           1           1
 AtZEff=  -0.0000000  -0.0000000  -0.0000000
 NQMom=    0.0000000   0.0000000   0.0000000
 NMagM=    0.0000000   2.7928460   2.7928460
 AtZNuc=   8.0000000   1.0000000   1.0000000
 Leave Link  101 at Wed Feb  8 14:42:16 2023, MaxMem=   754974720 cpu:               0.3 elap:               0.2
 (Enter /opt/cluster/programs/g16-c.01/g16/l202.exe)
                          Input orientation:                          
 ---------------------------------------------------------------------
 Center     Atomic      Atomic             Coordinates (Angstroms)
 Number     Number       Type             X           Y           Z
 ---------------------------------------------------------------------
      1          8           0        0.000000    0.117510    0.000000
      2          1           0        0.797362   -0.500790    0.000000
      3          1           0       -0.737638   -0.413687    0.000000
 ---------------------------------------------------------------------
                    Distance matrix (angstroms):
                    1          2          3
     1  O    0.000000
     2  H    1.009000   0.000000
     3  H    0.909000   1.537470   0.000000
 Stoichiometry    H2O
 Framework group  CS[SG(H2O)]
 Deg. of freedom     3
 Full point group                 CS      NOp   2
 Largest Abelian subgroup         CS      NOp   2
 Largest concise Abelian subgroup C1      NOp   1
                         Standard orientation:                         
 ---------------------------------------------------------------------
 Center     Atomic      Atomic             Coordinates (Angstroms)
 Number     Number       Type             X           Y           Z
 ---------------------------------------------------------------------
      1          8           0        0.000000    0.115105   -0.000000
      2          1           0        0.764207   -0.543734    0.000000
      3          1           0       -0.764207   -0.377104   -0.000000
 ---------------------------------------------------------------------
 Rotational constants (GHZ):         872.3053748         419.5007815         283.2722113
 Leave Link  202 at Wed Feb  8 14:42:16 2023, MaxMem=   754974720 cpu:               0.0 elap:               0.0
 (Enter /opt/cluster/programs/g16-c.01/g16/l301.exe)
 Standard basis: 6-311G(d,p) (5D, 7F)
 Ernie: Thresh=  0.10000D-02 Tol=  0.10000D-05 Strict=F.
 There are    24 symmetry adapted cartesian basis functions of A'  symmetry.
 There are     7 symmetry adapted cartesian basis functions of A"  symmetry.
 There are    23 symmetry adapted basis functions of A'  symmetry.
 There are     7 symmetry adapted basis functions of A"  symmetry.
    30 basis functions,    48 primitive gaussians,    31 cartesian basis functions
     5 alpha electrons        5 beta electrons
       nuclear repulsion energy         9.1970689783 Hartrees.
 IExCor= 4639 DFT=T Ex+Corr=wB97XD ExCW=0 ScaHFX=  1.000000
 ScaDFX=  1.000000  1.000000  1.000000  1.000000 ScalE2=  1.000000  1.000000
 IRadAn=      5 IRanWt=     -1 IRanGd=            0 ICorTp=0 IEmpDi=121
 HFx  wShort=  0.000000 wLong=  0.200000 cFull=  0.222036 cShort=  0.000000 cLong=  0.777964
 DFx  wShort=  0.000000 wLong=  0.200000 cFull=  0.000000 cShort=  0.000000 cLong=  1.000000
 NAtoms=    3 NActive=    3 NUniq=    3 SFac= 1.00D+00 NAtFMM=   60 NAOKFM=F Big=F
 Integral buffers will be    131072 words long.
 Raffenetti 2 integral format.
 Two-electron integral symmetry is turned on.
 R6Disp:  Grimme-D2 Dispersion energy=       -0.0000292948 Hartrees.
 Nuclear repulsion after empirical dispersion term =        9.1970396835 Hartrees.
 Leave Link  301 at Wed Feb  8 14:42:16 2023, MaxMem=   754974720 cpu:               0.1 elap:               0.0
 (Enter /opt/cluster/programs/g16-c.01/g16/l302.exe)
 NPDir=0 NMtPBC=     1 NCelOv=     1 NCel=       1 NClECP=     1 NCelD=      1
         NCelK=      1 NCelE2=     1 NClLst=     1 CellRange=     0.0.
 One-electron integrals computed using PRISM.
 One-electron integral symmetry used in STVInt
 NBasis=    30 RedAO= T EigKep=  1.76D-02  NBF=    23     7
 NBsUse=    30 1.00D-06 EigRej= -1.00D+00 NBFU=    23     7
 Precomputing XC quadrature grid using
 IXCGrd= 4 IRadAn=           5 IRanWt=          -1 IRanGd=           0 AccXCQ= 0.00D+00.
 Generated NRdTot=       0 NPtTot=           0 NUsed=           0 NTot=          32
 NSgBfM=    31    31    31    31    31 MxSgAt=     3 MxSgA2=     3.
 Leave Link  302 at Wed Feb  8 14:42:16 2023, MaxMem=   754974720 cpu:               0.5 elap:               0.2
 (Enter /opt/cluster/programs/g16-c.01/g16/l303.exe)
 DipDrv:  MaxL=1.
 Leave Link  303 at Wed Feb  8 14:42:17 2023, MaxMem=   754974720 cpu:               0.4 elap:               0.2
 (Enter /opt/cluster/programs/g16-c.01/g16/l401.exe)
 ExpMin= 1.03D-01 ExpMax= 8.59D+03 ExpMxC= 1.30D+03 IAcc=3 IRadAn=         5 AccDes= 0.00D+00
 Harris functional with IExCor= 4639 and IRadAn=       5 diagonalized for initial guess.
 HarFok:  IExCor= 4639 AccDes= 0.00D+00 IRadAn=         5 IDoV= 1 UseB2=F ITyADJ=14
 ICtDFT=  3500011 ScaDFX=  1.000000  1.000000  1.000000  1.000000
 FoFCou: FMM=F IPFlag=           0 FMFlag=      100000 FMFlg1=           0
         NFxFlg=           0 DoJE=T BraDBF=F KetDBF=T FulRan=T
         wScrn=  0.000000 ICntrl=       500 IOpCl=  0 I1Cent=   200000004 NGrid=           0
         NMat0=    1 NMatS0=      1 NMatT0=    0 NMatD0=    1 NMtDS0=    0 NMtDT0=    0
 Petite list used in FoFCou.
 Harris En= -73.6078870810882    
 JPrj=0 DoOrth=F DoCkMO=F.
 Initial guess orbital symmetries:
       Occupied  (A') (A') (A') (A') (A")
       Virtual   (A') (A') (A') (A') (A') (A") (A') (A') (A") (A')
                 (A") (A') (A') (A') (A') (A') (A") (A") (A') (A')
                 (A') (A") (A') (A') (A')
 The electronic state of the initial guess is 1-A'.
 Leave Link  401 at Wed Feb  8 14:42:17 2023, MaxMem=   754974720 cpu:               0.7 elap:               0.2
 (Enter /opt/cluster/programs/g16-c.01/g16/l502.exe)
 Keep R1 ints in memory in symmetry-blocked form, NReq=3688183.
 FoFCou: FMM=F IPFlag=           0 FMFlag=           0 FMFlg1=           0
         NFxFlg=           0 DoJE=F BraDBF=F KetDBF=F FulRan=T
         wScrn=  0.000000 ICntrl=       600 IOpCl=  0 I1Cent=           0 NGrid=           0
         NMat0=    1 NMatS0=    465 NMatT0=    0 NMatD0=    1 NMtDS0=    0 NMtDT0=    0
 Petite list used in FoFCou.
 Closed shell SCF:
 Using DIIS extrapolation, IDIIS=  1040.
 NGot=   754974720 LenX=   754911268 LenY=   754909866
 Requested convergence on RMS density matrix=1.00D-08 within 200 cycles.
 Requested convergence on MAX density matrix=1.00D-06.
 Requested convergence on             energy=1.00D-06.
 No special actions if energy rises.
 Integral accuracy reduced to 1.0D-05 until final iterations.

 Cycle   1  Pass 0  IDiag  1:
 E= -76.4079383689758    
 DIIS: error= 8.01D-02 at cycle   1 NSaved=   1.
 NSaved= 1 IEnMin= 1 EnMin= -76.4079383689758     IErMin= 1 ErrMin= 8.01D-02
 ErrMax= 8.01D-02  0.00D+00 EMaxC= 1.00D-01 BMatC= 1.29D-01 BMatP= 1.29D-01
 IDIUse=3 WtCom= 1.99D-01 WtEn= 8.01D-01
 Coeff-Com:  0.100D+01
 Coeff-En:   0.100D+01
 Coeff:      0.100D+01
 Gap=     0.490 Goal=   None    Shift=    0.000
 GapD=    0.490 DampG=2.000 DampE=0.500 DampFc=1.0000 IDamp=-1.
 RMSDP=2.54D-03 MaxDP=2.23D-02              OVMax= 3.68D-02

 Cycle   2  Pass 0  IDiag  1:
 E= -76.4177195059910     Delta-E=       -0.009781137015 Rises=F Damp=F
 DIIS: error= 6.30D-03 at cycle   2 NSaved=   2.
 NSaved= 2 IEnMin= 2 EnMin= -76.4177195059910     IErMin= 2 ErrMin= 6.30D-03
 ErrMax= 6.30D-03  0.00D+00 EMaxC= 1.00D-01 BMatC= 8.07D-04 BMatP= 1.29D-01
 IDIUse=3 WtCom= 9.37D-01 WtEn= 6.30D-02
 Coeff-Com:  0.423D-01 0.958D+00
 Coeff-En:   0.000D+00 0.100D+01
 Coeff:      0.397D-01 0.960D+00
 Gap=     0.510 Goal=   None    Shift=    0.000
 RMSDP=6.88D-04 MaxDP=8.44D-03 DE=-9.78D-03 OVMax= 8.65D-03

 Cycle   3  Pass 0  IDiag  1:
 E= -76.4179222206156     Delta-E=       -0.000202714625 Rises=F Damp=F
 DIIS: error= 4.35D-03 at cycle   3 NSaved=   3.
 NSaved= 3 IEnMin= 3 EnMin= -76.4179222206156     IErMin= 3 ErrMin= 4.35D-03
 ErrMax= 4.35D-03  0.00D+00 EMaxC= 1.00D-01 BMatC= 3.85D-04 BMatP= 8.07D-04
 IDIUse=3 WtCom= 9.57D-01 WtEn= 4.35D-02
 Coeff-Com:  0.200D-01 0.430D+00 0.550D+00
 Coeff-En:   0.000D+00 0.303D+00 0.697D+00
 Coeff:      0.191D-01 0.424D+00 0.557D+00
 Gap=     0.502 Goal=   None    Shift=    0.000
 RMSDP=3.30D-04 MaxDP=3.95D-03 DE=-2.03D-04 OVMax= 4.66D-03

 Cycle   4  Pass 0  IDiag  1:
 E= -76.4181521668399     Delta-E=       -0.000229946224 Rises=F Damp=F
 DIIS: error= 7.27D-04 at cycle   4 NSaved=   4.
 NSaved= 4 IEnMin= 4 EnMin= -76.4181521668399     IErMin= 4 ErrMin= 7.27D-04
 ErrMax= 7.27D-04  0.00D+00 EMaxC= 1.00D-01 BMatC= 1.04D-05 BMatP= 3.85D-04
 IDIUse=3 WtCom= 9.93D-01 WtEn= 7.27D-03
 Coeff-Com:  0.188D-02 0.543D-01 0.167D+00 0.777D+00
 Coeff-En:   0.000D+00 0.000D+00 0.000D+00 0.100D+01
 Coeff:      0.187D-02 0.539D-01 0.166D+00 0.778D+00
 Gap=     0.503 Goal=   None    Shift=    0.000
 RMSDP=5.68D-05 MaxDP=7.90D-04 DE=-2.30D-04 OVMax= 6.51D-04

 Cycle   5  Pass 0  IDiag  1:
 E= -76.4181586323242     Delta-E=       -0.000006465484 Rises=F Damp=F
 DIIS: error= 6.15D-05 at cycle   5 NSaved=   5.
 NSaved= 5 IEnMin= 5 EnMin= -76.4181586323242     IErMin= 5 ErrMin= 6.15D-05
 ErrMax= 6.15D-05  0.00D+00 EMaxC= 1.00D-01 BMatC= 8.65D-08 BMatP= 1.04D-05
 IDIUse=1 WtCom= 1.00D+00 WtEn= 0.00D+00
 Coeff-Com: -0.755D-03-0.196D-01-0.255D-01-0.261D-01 0.107D+01
 Coeff:     -0.755D-03-0.196D-01-0.255D-01-0.261D-01 0.107D+01
 Gap=     0.503 Goal=   None    Shift=    0.000
 RMSDP=1.87D-05 MaxDP=1.90D-04 DE=-6.47D-06 OVMax= 3.00D-04

 Cycle   6  Pass 0  IDiag  1:
 E= -76.4181587995270     Delta-E=       -0.000000167203 Rises=F Damp=F
 DIIS: error= 1.21D-05 at cycle   6 NSaved=   6.
 NSaved= 6 IEnMin= 6 EnMin= -76.4181587995270     IErMin= 6 ErrMin= 1.21D-05
 ErrMax= 1.21D-05  0.00D+00 EMaxC= 1.00D-01 BMatC= 3.84D-09 BMatP= 8.65D-08
 IDIUse=1 WtCom= 1.00D+00 WtEn= 0.00D+00
 Coeff-Com:  0.617D-04 0.118D-02 0.192D-02-0.132D-01-0.120D+00 0.113D+01
 Coeff:      0.617D-04 0.118D-02 0.192D-02-0.132D-01-0.120D+00 0.113D+01
 Gap=     0.503 Goal=   None    Shift=    0.000
 RMSDP=4.24D-06 MaxDP=4.85D-05 DE=-1.67D-07 OVMax= 7.19D-05

 Initial convergence to 1.0D-05 achieved.  Increase integral accuracy.
 Cycle   7  Pass 1  IDiag  1:
 E= -76.4181634890731     Delta-E=       -0.000004689546 Rises=F Damp=F
 DIIS: error= 1.08D-05 at cycle   1 NSaved=   1.
 NSaved= 1 IEnMin= 1 EnMin= -76.4181634890731     IErMin= 1 ErrMin= 1.08D-05
 ErrMax= 1.08D-05  0.00D+00 EMaxC= 1.00D-01 BMatC= 3.01D-09 BMatP= 3.01D-09
 IDIUse=1 WtCom= 1.00D+00 WtEn= 0.00D+00
 Coeff-Com:  0.100D+01
 Coeff:      0.100D+01
 Gap=     0.503 Goal=   None    Shift=    0.000
 RMSDP=4.24D-06 MaxDP=4.85D-05 DE=-4.69D-06 OVMax= 1.93D-05

 Cycle   8  Pass 1  IDiag  1:
 E= -76.4181634920945     Delta-E=       -0.000000003021 Rises=F Damp=F
 DIIS: error= 1.57D-06 at cycle   2 NSaved=   2.
 NSaved= 2 IEnMin= 2 EnMin= -76.4181634920945     IErMin= 2 ErrMin= 1.57D-06
 ErrMax= 1.57D-06  0.00D+00 EMaxC= 1.00D-01 BMatC= 6.95D-11 BMatP= 3.01D-09
 IDIUse=1 WtCom= 1.00D+00 WtEn= 0.00D+00
 Coeff-Com: -0.757D-01 0.108D+01
 Coeff:     -0.757D-01 0.108D+01
 Gap=     0.503 Goal=   None    Shift=    0.000
 RMSDP=4.06D-07 MaxDP=2.62D-06 DE=-3.02D-09 OVMax= 6.99D-06

 Cycle   9  Pass 1  IDiag  1:
 E= -76.4181634922109     Delta-E=       -0.000000000116 Rises=F Damp=F
 DIIS: error= 5.29D-07 at cycle   3 NSaved=   3.
 NSaved= 3 IEnMin= 3 EnMin= -76.4181634922109     IErMin= 3 ErrMin= 5.29D-07
 ErrMax= 5.29D-07  0.00D+00 EMaxC= 1.00D-01 BMatC= 1.06D-11 BMatP= 6.95D-11
 IDIUse=1 WtCom= 1.00D+00 WtEn= 0.00D+00
 Coeff-Com: -0.369D-01 0.258D+00 0.779D+00
 Coeff:     -0.369D-01 0.258D+00 0.779D+00
 Gap=     0.503 Goal=   None    Shift=    0.000
 RMSDP=1.04D-07 MaxDP=1.39D-06 DE=-1.16D-10 OVMax= 1.79D-06

 Cycle  10  Pass 1  IDiag  1:
 E= -76.4181634922206     Delta-E=       -0.000000000010 Rises=F Damp=F
 DIIS: error= 3.20D-07 at cycle   4 NSaved=   4.
 NSaved= 4 IEnMin= 4 EnMin= -76.4181634922206     IErMin= 4 ErrMin= 3.20D-07
 ErrMax= 3.20D-07  0.00D+00 EMaxC= 1.00D-01 BMatC= 1.84D-12 BMatP= 1.06D-11
 IDIUse=1 WtCom= 1.00D+00 WtEn= 0.00D+00
 Coeff-Com: -0.942D-02 0.229D-01 0.250D+00 0.737D+00
 Coeff:     -0.942D-02 0.229D-01 0.250D+00 0.737D+00
 Gap=     0.503 Goal=   None    Shift=    0.000
 RMSDP=3.77D-08 MaxDP=3.83D-07 DE=-9.79D-12 OVMax= 5.66D-07

 Cycle  11  Pass 1  IDiag  1:
 E= -76.4181634922225     Delta-E=       -0.000000000002 Rises=F Damp=F
 DIIS: error= 7.35D-08 at cycle   5 NSaved=   5.
 NSaved= 5 IEnMin= 5 EnMin= -76.4181634922225     IErMin= 5 ErrMin= 7.35D-08
 ErrMax= 7.35D-08  0.00D+00 EMaxC= 1.00D-01 BMatC= 2.23D-13 BMatP= 1.84D-12
 IDIUse=1 WtCom= 1.00D+00 WtEn= 0.00D+00
 Coeff-Com:  0.527D-02-0.438D-01-0.112D+00 0.190D+00 0.961D+00
 Coeff:      0.527D-02-0.438D-01-0.112D+00 0.190D+00 0.961D+00
 Gap=     0.503 Goal=   None    Shift=    0.000
 RMSDP=2.71D-08 MaxDP=3.14D-07 DE=-1.89D-12 OVMax= 5.51D-07

 Cycle  12  Pass 1  IDiag  1:
 E= -76.4181634922230     Delta-E=       -0.000000000000 Rises=F Damp=F
 DIIS: error= 1.33D-08 at cycle   6 NSaved=   6.
 NSaved= 6 IEnMin= 6 EnMin= -76.4181634922230     IErMin= 6 ErrMin= 1.33D-08
 ErrMax= 1.33D-08  0.00D+00 EMaxC= 1.00D-01 BMatC= 3.35D-15 BMatP= 2.23D-13
 IDIUse=1 WtCom= 1.00D+00 WtEn= 0.00D+00
 Coeff-Com: -0.909D-05 0.153D-02 0.285D-02-0.506D-01-0.474D-01 0.109D+01
 Coeff:     -0.909D-05 0.153D-02 0.285D-02-0.506D-01-0.474D-01 0.109D+01
 Gap=     0.503 Goal=   None    Shift=    0.000
 RMSDP=3.72D-09 MaxDP=3.14D-08 DE=-4.83D-13 OVMax= 7.31D-08

 SCF Done:  E(RwB97XD) =  -76.4181634922     A.U. after   12 cycles
            NFock= 12  Conv=0.37D-08     -V/T= 2.0014
 KE= 7.631011267189D+01 PE=-1.995506070904D+02 EE= 3.762529124282D+01
 Leave Link  502 at Wed Feb  8 14:42:21 2023, MaxMem=   754974720 cpu:               7.9 elap:               3.9
 (Enter /opt/cluster/programs/g16-c.01/g16/l601.exe)
 Copying SCF densities to generalized density rwf, IOpCl= 0 IROHF=0.

 **********************************************************************

            Population analysis using the SCF Density.

 **********************************************************************

 Orbital symmetries:
       Occupied  (A') (A') (A') (A') (A")
       Virtual   (A') (A') (A') (A') (A') (A") (A') (A') (A") (A')
                 (A") (A') (A') (A') (A') (A') (A") (A") (A') (A')
                 (A') (A") (A') (A') (A')
 The electronic state is 1-A'.
 Alpha  occ. eigenvalues --  -19.22440  -1.10326  -0.61345  -0.45873  -0.38591
 Alpha virt. eigenvalues --    0.11721   0.19302   0.45431   0.52045   0.85072
 Alpha virt. eigenvalues --    0.85497   0.95154   1.15449   1.34585   1.36521
 Alpha virt. eigenvalues --    1.55996   1.72919   2.00565   2.15503   2.40084
 Alpha virt. eigenvalues --    2.56337   3.16578   3.28587   3.41076   3.69659
 Alpha virt. eigenvalues --    3.92945   4.88437   5.27627   5.76714  49.99913
          Condensed to atoms (all electrons):
               1          2          3
     1  O    7.855044   0.311079   0.330231
     2  H    0.311079   0.472706  -0.031249
     3  H    0.330231  -0.031249   0.452128
 Mulliken charges:
               1
     1  O   -0.496354
     2  H    0.247464
     3  H    0.248890
 Sum of Mulliken charges =  -0.00000
 Mulliken charges with hydrogens summed into heavy atoms:
               1
     1  O   -0.000000
 Electronic spatial extent (au):  <R**2>=             19.0322
 Charge=             -0.0000 electrons
 Dipole moment (field-independent basis, Debye):
    X=             -0.0839    Y=             -2.0688    Z=              0.0000  Tot=              2.0705
 Quadrupole moment (field-independent basis, Debye-Ang):
   XX=             -4.1539   YY=             -6.0517   ZZ=             -7.1710
   XY=             -0.2632   XZ=             -0.0000   YZ=             -0.0000
 Traceless Quadrupole moment (field-independent basis, Debye-Ang):
   XX=              1.6383   YY=             -0.2595   ZZ=             -1.3788
   XY=             -0.2632   XZ=             -0.0000   YZ=             -0.0000
 Octapole moment (field-independent basis, Debye-Ang**2):
  XXX=             -0.1928  YYY=             -1.2472  ZZZ=              0.0000  XYY=              0.1508
  XXY=             -1.2665  XXZ=              0.0000  XZZ=             -0.0720  YZZ=             -0.3233
  YYZ=              0.0000  XYZ=             -0.0000
 Hexadecapole moment (field-independent basis, Debye-Ang**3):
 XXXX=             -5.7599 YYYY=             -6.2532 ZZZZ=             -5.2462 XXXY=              0.0466
 XXXZ=             -0.0000 YYYX=              0.0259 YYYZ=              0.0000 ZZZX=             -0.0000
 ZZZY=              0.0000 XXYY=             -1.6795 XXZZ=             -2.1280 YYZZ=             -1.9738
 XXYZ=             -0.0000 YYXZ=             -0.0000 ZZXY=              0.0768
 N-N= 9.197039683491D+00 E-N=-1.995506072873D+02  KE= 7.631011267189D+01
 Symmetry A'   KE= 7.167381902734D+01
 Symmetry A"   KE= 4.636293644553D+00
 No NMR shielding tensors so no spin-rotation constants.
 Leave Link  601 at Wed Feb  8 14:42:21 2023, MaxMem=   754974720 cpu:               1.2 elap:               0.6
 (Enter /opt/cluster/programs/g16-c.01/g16/l9999.exe)
 Unable to Open any file for archive entry.
 1\1\GINC-NODE58\SP\RwB97XD\6-311G(d,p)\H2O1\BOITTIER\08-Feb-2023\0\\#P
  wB97XD/6-311g** scf(maxcycle=200)\\Gaussian input\\0,1\O,0,0.,0.11751
 ,0.\H,0,0.7973622306,-0.5007896629,0.\H,0,-0.7376384426,-0.4136872591,
 0.\\Version=ES64L-G16RevC.01\State=1-A'\HF=-76.4181635\RMSD=3.721e-09\
 Dipole=0.0092699,-0.8145454,0.\Quadrupole=1.2344885,-0.2094077,-1.0250
 808,-0.1215146,0.,0.\PG=CS [SG(H2O1)]\\@
 The archive entry for this job was punched.


 WOMEN HOLD UP HALF THE SKY. -- MAO TSE TUNG
 Job cpu time:       0 days  0 hours  0 minutes 11.5 seconds.
 Elapsed time:       0 days  0 hours  0 minutes  5.4 seconds.
 File lengths (MBytes):  RWF=      6 Int=      0 D2E=      0 Chk=      1 Scr=      1
 Normal termination of Gaussian 16 at Wed Feb  8 14:42:22 2023.
