 Entering Gaussian System, Link 0=/opt/cluster/programs/g16-c.01/g16/g16
 Input=/scratch/boittier/jobs/tmp.7425343/gaussian_70_water_pbe0_dz.com
 Output=/scratch/boittier/jobs/tmp.7425343/gaussian_70_water_pbe0_dz.out
 Initial command:
 /opt/cluster/programs/g16-c.01/g16/l1.exe "/scratch/boittier/jobs/tmp.7425343/Gau-13344.inp" -scrdir="/scratch/boittier/jobs/tmp.7425343/"
 Entering Link 1 = /opt/cluster/programs/g16-c.01/g16/l1.exe PID=     13345.
  
 Copyright (c) 1988-2019, Gaussian, Inc.  All Rights Reserved.
  
 This is part of the Gaussian(R) 16 program.  It is based on
 the Gaussian(R) 09 system (copyright 2009, Gaussian, Inc.),
 the Gaussian(R) 03 system (copyright 2003, Gaussian, Inc.),
 the Gaussian(R) 98 system (copyright 1998, Gaussian, Inc.),
 the Gaussian(R) 94 system (copyright 1995, Gaussian, Inc.),
 the Gaussian 92(TM) system (copyright 1992, Gaussian, Inc.),
 the Gaussian 90(TM) system (copyright 1990, Gaussian, Inc.),
 the Gaussian 88(TM) system (copyright 1988, Gaussian, Inc.),
 the Gaussian 86(TM) system (copyright 1986, Carnegie Mellon
 University), and the Gaussian 82(TM) system (copyright 1983,
 Carnegie Mellon University). Gaussian is a federally registered
 trademark of Gaussian, Inc.
  
 This software contains proprietary and confidential information,
 including trade secrets, belonging to Gaussian, Inc.
  
 This software is provided under written license and may be
 used, copied, transmitted, or stored only in accord with that
 written license.
  
 The following legend is applicable only to US Government
 contracts under FAR:
  
                    RESTRICTED RIGHTS LEGEND
  
 Use, reproduction and disclosure by the US Government is
 subject to restrictions as set forth in subparagraphs (a)
 and (c) of the Commercial Computer Software - Restricted
 Rights clause in FAR 52.227-19.
  
 Gaussian, Inc.
 340 Quinnipiac St., Bldg. 40, Wallingford CT 06492
  
  
 ---------------------------------------------------------------
 Warning -- This program may not be used in any manner that
 competes with the business of Gaussian, Inc. or will provide
 assistance to any competitor of Gaussian, Inc.  The licensee
 of this program is prohibited from giving any competitor of
 Gaussian, Inc. access to this program.  By using this program,
 the user acknowledges that Gaussian, Inc. is engaged in the
 business of creating and licensing software in the field of
 computational chemistry and represents and warrants to the
 licensee that it is not a competitor of Gaussian, Inc. and that
 it will not use this program in any manner prohibited above.
 ---------------------------------------------------------------
  

 Cite this work as:
 Gaussian 16, Revision C.01,
 M. J. Frisch, G. W. Trucks, H. B. Schlegel, G. E. Scuseria, 
 M. A. Robb, J. R. Cheeseman, G. Scalmani, V. Barone, 
 G. A. Petersson, H. Nakatsuji, X. Li, M. Caricato, A. V. Marenich, 
 J. Bloino, B. G. Janesko, R. Gomperts, B. Mennucci, H. P. Hratchian, 
 J. V. Ortiz, A. F. Izmaylov, J. L. Sonnenberg, D. Williams-Young, 
 F. Ding, F. Lipparini, F. Egidi, J. Goings, B. Peng, A. Petrone, 
 T. Henderson, D. Ranasinghe, V. G. Zakrzewski, J. Gao, N. Rega, 
 G. Zheng, W. Liang, M. Hada, M. Ehara, K. Toyota, R. Fukuda, 
 J. Hasegawa, M. Ishida, T. Nakajima, Y. Honda, O. Kitao, H. Nakai, 
 T. Vreven, K. Throssell, J. A. Montgomery, Jr., J. E. Peralta, 
 F. Ogliaro, M. J. Bearpark, J. J. Heyd, E. N. Brothers, K. N. Kudin, 
 V. N. Staroverov, T. A. Keith, R. Kobayashi, J. Normand, 
 K. Raghavachari, A. P. Rendell, J. C. Burant, S. S. Iyengar, 
 J. Tomasi, M. Cossi, J. M. Millam, M. Klene, C. Adamo, R. Cammi, 
 J. W. Ochterski, R. L. Martin, K. Morokuma, O. Farkas, 
 J. B. Foresman, and D. J. Fox, Gaussian, Inc., Wallingford CT, 2019.
 
 ******************************************
 Gaussian 16:  ES64L-G16RevC.01  3-Jul-2019
                20-Mar-2023 
 ******************************************
 %nproc=4
 Will use up to    4 processors via shared memory.
 %mem=5760MB
 %chk=gaussian_70_water_pbe0_dz.chk
 ----------------------------------------
 #P PBE1PBE/aug-cc-pVDZ scf(maxcycle=200)
 ----------------------------------------
 1/38=1,172=1/1;
 2/12=2,17=6,18=5,40=1/2;
 3/5=16,7=10,11=2,25=1,30=1,74=-13/1,2,3;
 4//1;
 5/5=2,7=200,38=5/2;
 6/7=2,8=2,9=2,10=2,28=1/1;
 99/5=1,9=1/99;
 Leave Link    1 at Mon Mar 20 17:34:08 2023, MaxMem=   754974720 cpu:               0.1 elap:               0.0
 (Enter /opt/cluster/programs/g16-c.01/g16/l101.exe)
 --------------
 Gaussian input
 --------------
 Symbolic Z-matrix:
 Charge =  0 Multiplicity = 1
 O                     0.        0.11751   0. 
 H                     0.75785  -0.47015   0. 
 H                    -0.71865  -0.43911   0. 
 
 ITRead=  0  0  0
 MicOpt= -1 -1 -1
 NAtoms=      3 NQM=        3 NQMF=       0 NMMI=      0 NMMIF=      0
                NMic=       0 NMicF=      0.
                    Isotopes and Nuclear Properties:
 (Nuclear quadrupole moments (NQMom) in fm**2, nuclear magnetic moments (NMagM)
  in nuclear magnetons)

  Atom         1           2           3
 IAtWgt=          16           1           1
 AtmWgt=  15.9949146   1.0078250   1.0078250
 NucSpn=           0           1           1
 AtZEff=  -0.0000000  -0.0000000  -0.0000000
 NQMom=    0.0000000   0.0000000   0.0000000
 NMagM=    0.0000000   2.7928460   2.7928460
 AtZNuc=   8.0000000   1.0000000   1.0000000
 Leave Link  101 at Mon Mar 20 17:34:08 2023, MaxMem=   754974720 cpu:               0.4 elap:               0.2
 (Enter /opt/cluster/programs/g16-c.01/g16/l202.exe)
                          Input orientation:                          
 ---------------------------------------------------------------------
 Center     Atomic      Atomic             Coordinates (Angstroms)
 Number     Number       Type             X           Y           Z
 ---------------------------------------------------------------------
      1          8           0        0.000000    0.117510    0.000000
      2          1           0        0.757850   -0.470150    0.000000
      3          1           0       -0.718651   -0.439107    0.000000
 ---------------------------------------------------------------------
                    Distance matrix (angstroms):
                    1          2          3
     1  O    0.000000
     2  H    0.959000   0.000000
     3  H    0.909000   1.476827   0.000000
 Stoichiometry    H2O
 Framework group  CS[SG(H2O)]
 Deg. of freedom     3
 Full point group                 CS      NOp   2
 Largest Abelian subgroup         CS      NOp   2
 Largest concise Abelian subgroup C1      NOp   1
                         Standard orientation:                         
 ---------------------------------------------------------------------
 Center     Atomic      Atomic             Coordinates (Angstroms)
 Number     Number       Type             X           Y           Z
 ---------------------------------------------------------------------
      1          8           0        0.000000    0.114495    0.000000
      2          1           0        0.737286   -0.498767   -0.000000
      3          1           0       -0.737286   -0.417192    0.000000
 ---------------------------------------------------------------------
 Rotational constants (GHZ):         867.0936307         458.2470533         299.8045001
 Leave Link  202 at Mon Mar 20 17:34:08 2023, MaxMem=   754974720 cpu:               0.2 elap:               0.1
 (Enter /opt/cluster/programs/g16-c.01/g16/l301.exe)
 Standard basis: Aug-CC-pVDZ (5D, 7F)
 Ernie: Thresh=  0.10000D-02 Tol=  0.10000D-05 Strict=F.
 Ernie:  2 primitive shells out of 39 were deleted.
 There are    32 symmetry adapted cartesian basis functions of A'  symmetry.
 There are    11 symmetry adapted cartesian basis functions of A"  symmetry.
 There are    30 symmetry adapted basis functions of A'  symmetry.
 There are    11 symmetry adapted basis functions of A"  symmetry.
    41 basis functions,    65 primitive gaussians,    43 cartesian basis functions
     5 alpha electrons        5 beta electrons
       nuclear repulsion energy         9.4299540837 Hartrees.
 IExCor= 1009 DFT=T Ex+Corr=PBE1PBE ExCW=0 ScaHFX=  0.250000
 ScaDFX=  0.750000  0.750000  1.000000  1.000000 ScalE2=  1.000000  1.000000
 IRadAn=      5 IRanWt=     -1 IRanGd=            0 ICorTp=0 IEmpDi=  4
 NAtoms=    3 NActive=    3 NUniq=    3 SFac= 1.00D+00 NAtFMM=   60 NAOKFM=F Big=F
 Integral buffers will be    131072 words long.
 Raffenetti 2 integral format.
 Two-electron integral symmetry is turned on.
 Leave Link  301 at Mon Mar 20 17:34:09 2023, MaxMem=   754974720 cpu:               0.2 elap:               0.1
 (Enter /opt/cluster/programs/g16-c.01/g16/l302.exe)
 NPDir=0 NMtPBC=     1 NCelOv=     1 NCel=       1 NClECP=     1 NCelD=      1
         NCelK=      1 NCelE2=     1 NClLst=     1 CellRange=     0.0.
 One-electron integrals computed using PRISM.
 One-electron integral symmetry used in STVInt
 NBasis=    41 RedAO= T EigKep=  2.38D-03  NBF=    30    11
 NBsUse=    41 1.00D-06 EigRej= -1.00D+00 NBFU=    30    11
 Precomputing XC quadrature grid using
 IXCGrd= 4 IRadAn=           5 IRanWt=          -1 IRanGd=           0 AccXCQ= 0.00D+00.
 Generated NRdTot=       0 NPtTot=           0 NUsed=           0 NTot=          32
 NSgBfM=    43    43    43    43    43 MxSgAt=     3 MxSgA2=     3.
 Leave Link  302 at Mon Mar 20 17:34:09 2023, MaxMem=   754974720 cpu:               0.7 elap:               0.3
 (Enter /opt/cluster/programs/g16-c.01/g16/l303.exe)
 DipDrv:  MaxL=1.
 Leave Link  303 at Mon Mar 20 17:34:09 2023, MaxMem=   754974720 cpu:               0.5 elap:               0.3
 (Enter /opt/cluster/programs/g16-c.01/g16/l401.exe)
 ExpMin= 2.97D-02 ExpMax= 1.17D+04 ExpMxC= 4.01D+02 IAcc=3 IRadAn=         5 AccDes= 0.00D+00
 Harris functional with IExCor= 1009 and IRadAn=       5 diagonalized for initial guess.
 HarFok:  IExCor= 1009 AccDes= 0.00D+00 IRadAn=         5 IDoV= 1 UseB2=F ITyADJ=14
 ICtDFT=  3500011 ScaDFX=  1.000000  1.000000  1.000000  1.000000
 FoFCou: FMM=F IPFlag=           0 FMFlag=      100000 FMFlg1=           0
         NFxFlg=           0 DoJE=T BraDBF=F KetDBF=T FulRan=T
         wScrn=  0.000000 ICntrl=       500 IOpCl=  0 I1Cent=   200000004 NGrid=           0
         NMat0=    1 NMatS0=      1 NMatT0=    0 NMatD0=    1 NMtDS0=    0 NMtDT0=    0
 Petite list used in FoFCou.
 Harris En= -76.3976842059764    
 JPrj=0 DoOrth=F DoCkMO=F.
 Initial guess orbital symmetries:
       Occupied  (A') (A') (A') (A') (A")
       Virtual   (A') (A') (A') (A") (A') (A') (A') (A') (A") (A')
                 (A") (A') (A') (A') (A') (A') (A") (A') (A") (A')
                 (A") (A') (A') (A') (A") (A") (A') (A') (A') (A')
                 (A') (A") (A') (A") (A') (A')
 The electronic state of the initial guess is 1-A'.
 Leave Link  401 at Mon Mar 20 17:34:10 2023, MaxMem=   754974720 cpu:               1.6 elap:               0.8
 (Enter /opt/cluster/programs/g16-c.01/g16/l502.exe)
 Keep R1 ints in memory in symmetry-blocked form, NReq=3831793.
 FoFCou: FMM=F IPFlag=           0 FMFlag=           0 FMFlg1=           0
         NFxFlg=           0 DoJE=F BraDBF=F KetDBF=F FulRan=T
         wScrn=  0.000000 ICntrl=       600 IOpCl=  0 I1Cent=           0 NGrid=           0
         NMat0=    1 NMatS0=    861 NMatT0=    0 NMatD0=    1 NMtDS0=    0 NMtDT0=    0
 Petite list used in FoFCou.
 Closed shell SCF:
 Using DIIS extrapolation, IDIIS=  1040.
 NGot=   754974720 LenX=   754771907 LenY=   754769617
 Requested convergence on RMS density matrix=1.00D-08 within 200 cycles.
 Requested convergence on MAX density matrix=1.00D-06.
 Requested convergence on             energy=1.00D-06.
 No special actions if energy rises.

 Cycle   1  Pass 1  IDiag  1:
 E= -76.2862164380224    
 DIIS: error= 5.43D-02 at cycle   1 NSaved=   1.
 NSaved= 1 IEnMin= 1 EnMin= -76.2862164380224     IErMin= 1 ErrMin= 5.43D-02
 ErrMax= 5.43D-02  0.00D+00 EMaxC= 1.00D-01 BMatC= 9.34D-02 BMatP= 9.34D-02
 IDIUse=3 WtCom= 4.57D-01 WtEn= 5.43D-01
 Coeff-Com:  0.100D+01
 Coeff-En:   0.100D+01
 Coeff:      0.100D+01
 Gap=     0.176 Goal=   None    Shift=    0.000
 GapD=    0.176 DampG=1.000 DampE=0.500 DampFc=0.5000 IDamp=-1.
 Damping current iteration by 5.00D-01
 RMSDP=1.01D-02 MaxDP=1.67D-01              OVMax= 2.07D-01

 Cycle   2  Pass 1  IDiag  1:
 E= -76.3053728388926     Delta-E=       -0.019156400870 Rises=F Damp=T
 DIIS: error= 1.67D-02 at cycle   2 NSaved=   2.
 NSaved= 2 IEnMin= 2 EnMin= -76.3053728388926     IErMin= 2 ErrMin= 1.67D-02
 ErrMax= 1.67D-02  0.00D+00 EMaxC= 1.00D-01 BMatC= 7.53D-03 BMatP= 9.34D-02
 IDIUse=3 WtCom= 8.33D-01 WtEn= 1.67D-01
 Coeff-Com:  0.209D+00 0.791D+00
 Coeff-En:   0.358D+00 0.642D+00
 Coeff:      0.234D+00 0.766D+00
 Gap=     0.315 Goal=   None    Shift=    0.000
 RMSDP=1.21D-03 MaxDP=1.51D-02 DE=-1.92D-02 OVMax= 1.29D-01

 Cycle   3  Pass 1  IDiag  1:
 E= -76.3568005381373     Delta-E=       -0.051427699245 Rises=F Damp=F
 DIIS: error= 1.03D-03 at cycle   3 NSaved=   3.
 NSaved= 3 IEnMin= 3 EnMin= -76.3568005381373     IErMin= 3 ErrMin= 1.03D-03
 ErrMax= 1.03D-03  0.00D+00 EMaxC= 1.00D-01 BMatC= 4.36D-05 BMatP= 7.53D-03
 IDIUse=3 WtCom= 9.90D-01 WtEn= 1.03D-02
 Coeff-Com:  0.118D-01-0.290D-01 0.102D+01
 Coeff-En:   0.000D+00 0.000D+00 0.100D+01
 Coeff:      0.117D-01-0.287D-01 0.102D+01
 Gap=     0.324 Goal=   None    Shift=    0.000
 RMSDP=1.34D-04 MaxDP=1.57D-03 DE=-5.14D-02 OVMax= 1.28D-03

 Cycle   4  Pass 1  IDiag  1:
 E= -76.3568267141727     Delta-E=       -0.000026176035 Rises=F Damp=F
 DIIS: error= 2.67D-04 at cycle   4 NSaved=   4.
 NSaved= 4 IEnMin= 4 EnMin= -76.3568267141727     IErMin= 4 ErrMin= 2.67D-04
 ErrMax= 2.67D-04  0.00D+00 EMaxC= 1.00D-01 BMatC= 2.82D-06 BMatP= 4.36D-05
 IDIUse=3 WtCom= 9.97D-01 WtEn= 2.67D-03
 Coeff-Com:  0.366D-02-0.151D-01 0.220D+00 0.792D+00
 Coeff-En:   0.000D+00 0.000D+00 0.000D+00 0.100D+01
 Coeff:      0.365D-02-0.150D-01 0.219D+00 0.792D+00
 Gap=     0.325 Goal=   None    Shift=    0.000
 RMSDP=1.77D-05 MaxDP=2.91D-04 DE=-2.62D-05 OVMax= 4.14D-04

 Cycle   5  Pass 1  IDiag  1:
 E= -76.3568286008610     Delta-E=       -0.000001886688 Rises=F Damp=F
 DIIS: error= 8.11D-05 at cycle   5 NSaved=   5.
 NSaved= 5 IEnMin= 5 EnMin= -76.3568286008610     IErMin= 5 ErrMin= 8.11D-05
 ErrMax= 8.11D-05  0.00D+00 EMaxC= 1.00D-01 BMatC= 1.66D-07 BMatP= 2.82D-06
 IDIUse=1 WtCom= 1.00D+00 WtEn= 0.00D+00
 Coeff-Com:  0.114D-02-0.185D-02 0.408D-02 0.827D-01 0.914D+00
 Coeff:      0.114D-02-0.185D-02 0.408D-02 0.827D-01 0.914D+00
 Gap=     0.325 Goal=   None    Shift=    0.000
 RMSDP=5.57D-06 MaxDP=8.66D-05 DE=-1.89D-06 OVMax= 1.15D-04

 Cycle   6  Pass 1  IDiag  1:
 E= -76.3568287286297     Delta-E=       -0.000000127769 Rises=F Damp=F
 DIIS: error= 4.87D-06 at cycle   6 NSaved=   6.
 NSaved= 6 IEnMin= 6 EnMin= -76.3568287286297     IErMin= 6 ErrMin= 4.87D-06
 ErrMax= 4.87D-06  0.00D+00 EMaxC= 1.00D-01 BMatC= 5.76D-10 BMatP= 1.66D-07
 IDIUse=1 WtCom= 1.00D+00 WtEn= 0.00D+00
 Coeff-Com:  0.104D-03-0.165D-03-0.990D-04 0.932D-04 0.657D-01 0.934D+00
 Coeff:      0.104D-03-0.165D-03-0.990D-04 0.932D-04 0.657D-01 0.934D+00
 Gap=     0.325 Goal=   None    Shift=    0.000
 RMSDP=4.53D-07 MaxDP=6.10D-06 DE=-1.28D-07 OVMax= 8.54D-06

 Cycle   7  Pass 1  IDiag  1:
 E= -76.3568287290980     Delta-E=       -0.000000000468 Rises=F Damp=F
 DIIS: error= 6.46D-07 at cycle   7 NSaved=   7.
 NSaved= 7 IEnMin= 7 EnMin= -76.3568287290980     IErMin= 7 ErrMin= 6.46D-07
 ErrMax= 6.46D-07  0.00D+00 EMaxC= 1.00D-01 BMatC= 1.94D-11 BMatP= 5.76D-10
 IDIUse=1 WtCom= 1.00D+00 WtEn= 0.00D+00
 Coeff-Com: -0.289D-04 0.436D-04-0.203D-03-0.428D-02-0.290D-01 0.235D+00
 Coeff-Com:  0.799D+00
 Coeff:     -0.289D-04 0.436D-04-0.203D-03-0.428D-02-0.290D-01 0.235D+00
 Coeff:      0.799D+00
 Gap=     0.325 Goal=   None    Shift=    0.000
 RMSDP=8.46D-08 MaxDP=8.98D-07 DE=-4.68D-10 OVMax= 1.54D-06

 Cycle   8  Pass 1  IDiag  1:
 E= -76.3568287291148     Delta-E=       -0.000000000017 Rises=F Damp=F
 DIIS: error= 9.21D-08 at cycle   8 NSaved=   8.
 NSaved= 8 IEnMin= 8 EnMin= -76.3568287291148     IErMin= 8 ErrMin= 9.21D-08
 ErrMax= 9.21D-08  0.00D+00 EMaxC= 1.00D-01 BMatC= 2.78D-13 BMatP= 1.94D-11
 IDIUse=1 WtCom= 1.00D+00 WtEn= 0.00D+00
 Coeff-Com: -0.817D-06 0.145D-05-0.651D-05 0.231D-03 0.102D-02-0.203D-01
 Coeff-Com: -0.503D-01 0.107D+01
 Coeff:     -0.817D-06 0.145D-05-0.651D-05 0.231D-03 0.102D-02-0.203D-01
 Coeff:     -0.503D-01 0.107D+01
 Gap=     0.325 Goal=   None    Shift=    0.000
 RMSDP=9.07D-09 MaxDP=1.84D-07 DE=-1.68D-11 OVMax= 3.07D-07

 SCF Done:  E(RPBE1PBE) =  -76.3568287291     A.U. after    8 cycles
            NFock=  8  Conv=0.91D-08     -V/T= 2.0041
 KE= 7.604708232190D+01 PE=-1.994139403859D+02 EE= 3.758007525123D+01
 Leave Link  502 at Mon Mar 20 17:34:11 2023, MaxMem=   754974720 cpu:               2.6 elap:               0.9
 (Enter /opt/cluster/programs/g16-c.01/g16/l601.exe)
 Copying SCF densities to generalized density rwf, IOpCl= 0 IROHF=0.

 **********************************************************************

            Population analysis using the SCF Density.

 **********************************************************************

 Orbital symmetries:
       Occupied  (A') (A') (A') (A') (A")
       Virtual   (A') (A') (A') (A") (A') (A') (A') (A') (A") (A')
                 (A") (A') (A') (A') (A') (A') (A") (A') (A") (A')
                 (A") (A') (A') (A') (A") (A") (A') (A') (A') (A')
                 (A') (A") (A') (A") (A') (A')
 The electronic state is 1-A'.
 Alpha  occ. eigenvalues --  -19.22648  -1.06017  -0.56186  -0.41363  -0.33533
 Alpha virt. eigenvalues --   -0.01021   0.03374   0.11315   0.13119   0.14625
 Alpha virt. eigenvalues --    0.16960   0.19594   0.24206   0.29359   0.30900
 Alpha virt. eigenvalues --    0.33790   0.45765   0.52297   0.54859   0.64593
 Alpha virt. eigenvalues --    0.76198   0.91525   0.92925   0.96764   1.09303
 Alpha virt. eigenvalues --    1.22457   1.24661   1.34726   1.77116   1.77974
 Alpha virt. eigenvalues --    1.88069   2.13999   2.19972   2.36867   2.44418
 Alpha virt. eigenvalues --    2.67545   3.30525   3.32579   3.33899   3.66910
 Alpha virt. eigenvalues --    3.97126
          Condensed to atoms (all electrons):
               1          2          3
     1  O    7.495462   0.329891   0.341632
     2  H    0.329891   0.640211  -0.079744
     3  H    0.341632  -0.079744   0.680767
 Mulliken charges:
               1
     1  O   -0.166986
     2  H    0.109642
     3  H    0.057344
 Sum of Mulliken charges =  -0.00000
 Mulliken charges with hydrogens summed into heavy atoms:
               1
     1  O   -0.000000
 Electronic spatial extent (au):  <R**2>=             19.6077
 Charge=             -0.0000 electrons
 Dipole moment (field-independent basis, Debye):
    X=             -0.0244    Y=             -1.8558    Z=             -0.0000  Tot=              1.8559
 Quadrupole moment (field-independent basis, Debye-Ang):
   XX=             -4.5265   YY=             -6.4056   ZZ=             -7.6845
   XY=             -0.1332   XZ=             -0.0000   YZ=              0.0000
 Traceless Quadrupole moment (field-independent basis, Debye-Ang):
   XX=              1.6790   YY=             -0.2001   ZZ=             -1.4790
   XY=             -0.1332   XZ=             -0.0000   YZ=              0.0000
 Octapole moment (field-independent basis, Debye-Ang**2):
  XXX=             -0.0696  YYY=             -1.0559  ZZZ=             -0.0000  XYY=              0.0825
  XXY=             -1.2166  XXZ=             -0.0000  XZZ=             -0.0296  YZZ=             -0.2583
  YYZ=             -0.0000  XYZ=              0.0000
 Hexadecapole moment (field-independent basis, Debye-Ang**3):
 XXXX=             -6.4249 YYYY=             -7.8111 ZZZZ=             -7.5273 XXXY=             -0.0015
 XXXZ=              0.0000 YYYX=              0.0050 YYYZ=             -0.0000 ZZZX=              0.0000
 ZZZY=             -0.0000 XXYY=             -2.1176 XXZZ=             -2.6148 YYZZ=             -2.6015
 XXYZ=              0.0000 YYXZ=              0.0000 ZZXY=              0.0330
 N-N= 9.429954083685D+00 E-N=-1.994139371323D+02  KE= 7.604708232190D+01
 Symmetry A'   KE= 7.160588282734D+01
 Symmetry A"   KE= 4.441199494565D+00
 No NMR shielding tensors so no spin-rotation constants.
 Leave Link  601 at Mon Mar 20 17:34:11 2023, MaxMem=   754974720 cpu:               0.9 elap:               0.5
 (Enter /opt/cluster/programs/g16-c.01/g16/l9999.exe)
 Unable to Open any file for archive entry.
 1\1\GINC-NODE60\SP\RPBE1PBE\Aug-CC-pVDZ\H2O1\BOITTIER\20-Mar-2023\0\\#
 P PBE1PBE/aug-cc-pVDZ scf(maxcycle=200)\\Gaussian input\\0,1\O,0,0.,0.
 11751,0.\H,0,0.7578497316,-0.4701504329,0.\H,0,-0.7186505762,-0.439106
 8785,0.\\Version=ES64L-G16RevC.01\State=1-A'\HF=-76.3568287\RMSD=9.067
 e-09\Dipole=0.0154199,-0.7300113,0.\Quadrupole=1.2534488,-0.1538739,-1
 .0995749,-0.0509658,0.,0.\PG=CS [SG(H2O1)]\\@
 The archive entry for this job was punched.


 WAR ES EIN GOTT DER DIESE ZEICHEN SCHRIEB?
          - LUDWIG BOLTZMANN, QUOTING GOETHE, ABOUT MAXWELL'S EQUATIONS.
 Job cpu time:       0 days  0 hours  0 minutes  7.5 seconds.
 Elapsed time:       0 days  0 hours  0 minutes  3.2 seconds.
 File lengths (MBytes):  RWF=      6 Int=      0 D2E=      0 Chk=      1 Scr=      1
 Normal termination of Gaussian 16 at Mon Mar 20 17:34:11 2023.
