 Entering Gaussian System, Link 0=/opt/cluster/programs/g16-c.01/g16/g16
 Input=/scratch/boittier/jobs/tmp.7311888/gaussian_60_water_hf_adz2.com
 Output=/scratch/boittier/jobs/tmp.7311888/gaussian_60_water_hf_adz2.out
 Initial command:
 /opt/cluster/programs/g16-c.01/g16/l1.exe "/scratch/boittier/jobs/tmp.7311888/Gau-190022.inp" -scrdir="/scratch/boittier/jobs/tmp.7311888/"
 Entering Link 1 = /opt/cluster/programs/g16-c.01/g16/l1.exe PID=    190023.
  
 Copyright (c) 1988-2019, Gaussian, Inc.  All Rights Reserved.
  
 This is part of the Gaussian(R) 16 program.  It is based on
 the Gaussian(R) 09 system (copyright 2009, Gaussian, Inc.),
 the Gaussian(R) 03 system (copyright 2003, Gaussian, Inc.),
 the Gaussian(R) 98 system (copyright 1998, Gaussian, Inc.),
 the Gaussian(R) 94 system (copyright 1995, Gaussian, Inc.),
 the Gaussian 92(TM) system (copyright 1992, Gaussian, Inc.),
 the Gaussian 90(TM) system (copyright 1990, Gaussian, Inc.),
 the Gaussian 88(TM) system (copyright 1988, Gaussian, Inc.),
 the Gaussian 86(TM) system (copyright 1986, Carnegie Mellon
 University), and the Gaussian 82(TM) system (copyright 1983,
 Carnegie Mellon University). Gaussian is a federally registered
 trademark of Gaussian, Inc.
  
 This software contains proprietary and confidential information,
 including trade secrets, belonging to Gaussian, Inc.
  
 This software is provided under written license and may be
 used, copied, transmitted, or stored only in accord with that
 written license.
  
 The following legend is applicable only to US Government
 contracts under FAR:
  
                    RESTRICTED RIGHTS LEGEND
  
 Use, reproduction and disclosure by the US Government is
 subject to restrictions as set forth in subparagraphs (a)
 and (c) of the Commercial Computer Software - Restricted
 Rights clause in FAR 52.227-19.
  
 Gaussian, Inc.
 340 Quinnipiac St., Bldg. 40, Wallingford CT 06492
  
  
 ---------------------------------------------------------------
 Warning -- This program may not be used in any manner that
 competes with the business of Gaussian, Inc. or will provide
 assistance to any competitor of Gaussian, Inc.  The licensee
 of this program is prohibited from giving any competitor of
 Gaussian, Inc. access to this program.  By using this program,
 the user acknowledges that Gaussian, Inc. is engaged in the
 business of creating and licensing software in the field of
 computational chemistry and represents and warrants to the
 licensee that it is not a competitor of Gaussian, Inc. and that
 it will not use this program in any manner prohibited above.
 ---------------------------------------------------------------
  

 Cite this work as:
 Gaussian 16, Revision C.01,
 M. J. Frisch, G. W. Trucks, H. B. Schlegel, G. E. Scuseria, 
 M. A. Robb, J. R. Cheeseman, G. Scalmani, V. Barone, 
 G. A. Petersson, H. Nakatsuji, X. Li, M. Caricato, A. V. Marenich, 
 J. Bloino, B. G. Janesko, R. Gomperts, B. Mennucci, H. P. Hratchian, 
 J. V. Ortiz, A. F. Izmaylov, J. L. Sonnenberg, D. Williams-Young, 
 F. Ding, F. Lipparini, F. Egidi, J. Goings, B. Peng, A. Petrone, 
 T. Henderson, D. Ranasinghe, V. G. Zakrzewski, J. Gao, N. Rega, 
 G. Zheng, W. Liang, M. Hada, M. Ehara, K. Toyota, R. Fukuda, 
 J. Hasegawa, M. Ishida, T. Nakajima, Y. Honda, O. Kitao, H. Nakai, 
 T. Vreven, K. Throssell, J. A. Montgomery, Jr., J. E. Peralta, 
 F. Ogliaro, M. J. Bearpark, J. J. Heyd, E. N. Brothers, K. N. Kudin, 
 V. N. Staroverov, T. A. Keith, R. Kobayashi, J. Normand, 
 K. Raghavachari, A. P. Rendell, J. C. Burant, S. S. Iyengar, 
 J. Tomasi, M. Cossi, J. M. Millam, M. Klene, C. Adamo, R. Cammi, 
 J. W. Ochterski, R. L. Martin, K. Morokuma, O. Farkas, 
 J. B. Foresman, and D. J. Fox, Gaussian, Inc., Wallingford CT, 2019.
 
 ******************************************
 Gaussian 16:  ES64L-G16RevC.01  3-Jul-2019
                20-Feb-2023 
 ******************************************
 %nproc=4
 Will use up to    4 processors via shared memory.
 %mem=5760MB
 %chk=gaussian_60_water_hf_adz2.chk
 -----------------------------------
 #P HF/aug-cc-pVDZ scf(maxcycle=200)
 -----------------------------------
 1/38=1,172=1/1;
 2/12=2,17=6,18=5,40=1/2;
 3/5=16,7=10,11=9,25=1,30=1/1,2,3;
 4//1;
 5/5=2,7=200,38=5/2;
 6/7=2,8=2,9=2,10=2,28=1/1;
 99/5=1,9=1/99;
 Leave Link    1 at Mon Feb 20 10:15:35 2023, MaxMem=   754974720 cpu:               0.1 elap:               0.0
 (Enter /opt/cluster/programs/g16-c.01/g16/l101.exe)
 --------------
 Gaussian input
 --------------
 Symbolic Z-matrix:
 Charge =  0 Multiplicity = 1
 O                     0.        0.11751   0. 
 H                     0.75785  -0.47015   0. 
 H                    -0.48494  -0.65133   0. 
 
 ITRead=  0  0  0
 MicOpt= -1 -1 -1
 NAtoms=      3 NQM=        3 NQMF=       0 NMMI=      0 NMMIF=      0
                NMic=       0 NMicF=      0.
                    Isotopes and Nuclear Properties:
 (Nuclear quadrupole moments (NQMom) in fm**2, nuclear magnetic moments (NMagM)
  in nuclear magnetons)

  Atom         1           2           3
 IAtWgt=          16           1           1
 AtmWgt=  15.9949146   1.0078250   1.0078250
 NucSpn=           0           1           1
 AtZEff=  -0.0000000  -0.0000000  -0.0000000
 NQMom=    0.0000000   0.0000000   0.0000000
 NMagM=    0.0000000   2.7928460   2.7928460
 AtZNuc=   8.0000000   1.0000000   1.0000000
 Leave Link  101 at Mon Feb 20 10:15:36 2023, MaxMem=   754974720 cpu:               0.8 elap:               0.2
 (Enter /opt/cluster/programs/g16-c.01/g16/l202.exe)
                          Input orientation:                          
 ---------------------------------------------------------------------
 Center     Atomic      Atomic             Coordinates (Angstroms)
 Number     Number       Type             X           Y           Z
 ---------------------------------------------------------------------
      1          8           0        0.000000    0.117510    0.000000
      2          1           0        0.757850   -0.470150    0.000000
      3          1           0       -0.484936   -0.651332    0.000000
 ---------------------------------------------------------------------
                    Distance matrix (angstroms):
                    1          2          3
     1  O    0.000000
     2  H    0.959000   0.000000
     3  H    0.909000   1.255924   0.000000
 Stoichiometry    H2O
 Framework group  CS[SG(H2O)]
 Deg. of freedom     3
 Full point group                 CS      NOp   2
 Largest Abelian subgroup         CS      NOp   2
 Largest concise Abelian subgroup C1      NOp   1
                         Standard orientation:                         
 ---------------------------------------------------------------------
 Center     Atomic      Atomic             Coordinates (Angstroms)
 Number     Number       Type             X           Y           Z
 ---------------------------------------------------------------------
      1          8           0        0.000000    0.138368    0.000000
      2          1           0        0.627054   -0.587224   -0.000000
      3          1           0       -0.627054   -0.519723    0.000000
 ---------------------------------------------------------------------
 Rotational constants (GHZ):         654.8714125         574.3410628         305.9841570
 Leave Link  202 at Mon Feb 20 10:15:36 2023, MaxMem=   754974720 cpu:               0.0 elap:               0.0
 (Enter /opt/cluster/programs/g16-c.01/g16/l301.exe)
 Standard basis: Aug-CC-pVDZ (5D, 7F)
 Ernie: Thresh=  0.10000D-02 Tol=  0.10000D-05 Strict=F.
 Ernie:  2 primitive shells out of 39 were deleted.
 There are    32 symmetry adapted cartesian basis functions of A'  symmetry.
 There are    11 symmetry adapted cartesian basis functions of A"  symmetry.
 There are    30 symmetry adapted basis functions of A'  symmetry.
 There are    11 symmetry adapted basis functions of A"  symmetry.
    41 basis functions,    65 primitive gaussians,    43 cartesian basis functions
     5 alpha electrons        5 beta electrons
       nuclear repulsion energy         9.4929786642 Hartrees.
 IExCor=    0 DFT=F Ex=HF Corr=None ExCW=0 ScaHFX=  1.000000
 ScaDFX=  1.000000  1.000000  1.000000  1.000000 ScalE2=  1.000000  1.000000
 IRadAn=      5 IRanWt=     -1 IRanGd=            0 ICorTp=0 IEmpDi=  4
 NAtoms=    3 NActive=    3 NUniq=    3 SFac= 1.00D+00 NAtFMM=   60 NAOKFM=F Big=F
 Integral buffers will be    131072 words long.
 Raffenetti 1 integral format.
 Two-electron integral symmetry is turned on.
 Leave Link  301 at Mon Feb 20 10:15:36 2023, MaxMem=   754974720 cpu:               0.2 elap:               0.0
 (Enter /opt/cluster/programs/g16-c.01/g16/l302.exe)
 NPDir=0 NMtPBC=     1 NCelOv=     1 NCel=       1 NClECP=     1 NCelD=      1
         NCelK=      1 NCelE2=     1 NClLst=     1 CellRange=     0.0.
 One-electron integrals computed using PRISM.
 One-electron integral symmetry used in STVInt
 NBasis=    41 RedAO= T EigKep=  1.43D-03  NBF=    30    11
 NBsUse=    41 1.00D-06 EigRej= -1.00D+00 NBFU=    30    11
 Leave Link  302 at Mon Feb 20 10:15:36 2023, MaxMem=   754974720 cpu:               0.4 elap:               0.1
 (Enter /opt/cluster/programs/g16-c.01/g16/l303.exe)
 DipDrv:  MaxL=1.
 Leave Link  303 at Mon Feb 20 10:15:36 2023, MaxMem=   754974720 cpu:               0.1 elap:               0.0
 (Enter /opt/cluster/programs/g16-c.01/g16/l401.exe)
 ExpMin= 2.97D-02 ExpMax= 1.17D+04 ExpMxC= 4.01D+02 IAcc=3 IRadAn=         5 AccDes= 0.00D+00
 Harris functional with IExCor=  205 and IRadAn=       5 diagonalized for initial guess.
 HarFok:  IExCor=  205 AccDes= 0.00D+00 IRadAn=         5 IDoV= 1 UseB2=F ITyADJ=14
 ICtDFT=  3500011 ScaDFX=  1.000000  1.000000  1.000000  1.000000
 FoFCou: FMM=F IPFlag=           0 FMFlag=      100000 FMFlg1=           0
         NFxFlg=           0 DoJE=T BraDBF=F KetDBF=T FulRan=T
         wScrn=  0.000000 ICntrl=       500 IOpCl=  0 I1Cent=   200000004 NGrid=           0
         NMat0=    1 NMatS0=      1 NMatT0=    0 NMatD0=    1 NMtDS0=    0 NMtDT0=    0
 Petite list used in FoFCou.
 Harris En= -76.1108276534919    
 JPrj=0 DoOrth=F DoCkMO=F.
 Initial guess orbital symmetries:
       Occupied  (A') (A') (A') (A') (A")
       Virtual   (A') (A') (A') (A") (A') (A') (A') (A') (A') (A")
                 (A") (A') (A') (A') (A') (A') (A") (A') (A") (A')
                 (A") (A') (A') (A") (A') (A') (A") (A') (A') (A')
                 (A') (A") (A') (A") (A') (A')
 The electronic state of the initial guess is 1-A'.
 Leave Link  401 at Mon Feb 20 10:15:36 2023, MaxMem=   754974720 cpu:               0.6 elap:               0.1
 (Enter /opt/cluster/programs/g16-c.01/g16/l502.exe)
 Keep R1 ints in memory in symmetry-blocked form, NReq=1210696.
 FoFCou: FMM=F IPFlag=           0 FMFlag=           0 FMFlg1=           0
         NFxFlg=           0 DoJE=F BraDBF=F KetDBF=F FulRan=T
         wScrn=  0.000000 ICntrl=       600 IOpCl=  0 I1Cent=           0 NGrid=           0
         NMat0=    1 NMatS0=    861 NMatT0=    0 NMatD0=    1 NMtDS0=    0 NMtDT0=    0
 Petite list used in FoFCou.
 Closed shell SCF:
 Using DIIS extrapolation, IDIIS=  1040.
 NGot=   754974720 LenX=   754771907 LenY=   754769617
 Requested convergence on RMS density matrix=1.00D-08 within 200 cycles.
 Requested convergence on MAX density matrix=1.00D-06.
 Requested convergence on             energy=1.00D-06.
 No special actions if energy rises.

 Cycle   1  Pass 1  IDiag  1:
 E= -75.9474842238745    
 DIIS: error= 5.11D-02 at cycle   1 NSaved=   1.
 NSaved= 1 IEnMin= 1 EnMin= -75.9474842238745     IErMin= 1 ErrMin= 5.11D-02
 ErrMax= 5.11D-02  0.00D+00 EMaxC= 1.00D-01 BMatC= 1.20D-01 BMatP= 1.20D-01
 IDIUse=3 WtCom= 4.89D-01 WtEn= 5.11D-01
 Coeff-Com:  0.100D+01
 Coeff-En:   0.100D+01
 Coeff:      0.100D+01
 Gap=     0.462 Goal=   None    Shift=    0.000
 GapD=    0.462 DampG=2.000 DampE=0.500 DampFc=1.0000 IDamp=-1.
 RMSDP=6.46D-03 MaxDP=1.19D-01              OVMax= 1.22D-01

 Cycle   2  Pass 1  IDiag  1:
 E= -75.9935197458792     Delta-E=       -0.046035522005 Rises=F Damp=F
 DIIS: error= 4.00D-02 at cycle   2 NSaved=   2.
 NSaved= 2 IEnMin= 2 EnMin= -75.9935197458792     IErMin= 2 ErrMin= 4.00D-02
 ErrMax= 4.00D-02  0.00D+00 EMaxC= 1.00D-01 BMatC= 4.62D-02 BMatP= 1.20D-01
 IDIUse=3 WtCom= 6.00D-01 WtEn= 4.00D-01
 Coeff-Com:  0.372D+00 0.628D+00
 Coeff-En:   0.206D+00 0.794D+00
 Coeff:      0.306D+00 0.694D+00
 Gap=     0.568 Goal=   None    Shift=    0.000
 RMSDP=3.00D-03 MaxDP=5.45D-02 DE=-4.60D-02 OVMax= 5.88D-02

 Cycle   3  Pass 1  IDiag  1:
 E= -76.0250807044415     Delta-E=       -0.031560958562 Rises=F Damp=F
 DIIS: error= 4.68D-03 at cycle   3 NSaved=   3.
 NSaved= 3 IEnMin= 3 EnMin= -76.0250807044415     IErMin= 3 ErrMin= 4.68D-03
 ErrMax= 4.68D-03  0.00D+00 EMaxC= 1.00D-01 BMatC= 1.18D-03 BMatP= 4.62D-02
 IDIUse=3 WtCom= 9.53D-01 WtEn= 4.68D-02
 Coeff-Com: -0.381D-01 0.925D-01 0.946D+00
 Coeff-En:   0.000D+00 0.000D+00 0.100D+01
 Coeff:     -0.363D-01 0.882D-01 0.948D+00
 Gap=     0.549 Goal=   None    Shift=    0.000
 RMSDP=4.71D-04 MaxDP=8.38D-03 DE=-3.16D-02 OVMax= 9.25D-03

 Cycle   4  Pass 1  IDiag  1:
 E= -76.0259588856852     Delta-E=       -0.000878181244 Rises=F Damp=F
 DIIS: error= 6.31D-04 at cycle   4 NSaved=   4.
 NSaved= 4 IEnMin= 4 EnMin= -76.0259588856852     IErMin= 4 ErrMin= 6.31D-04
 ErrMax= 6.31D-04  0.00D+00 EMaxC= 1.00D-01 BMatC= 6.42D-06 BMatP= 1.18D-03
 IDIUse=3 WtCom= 9.94D-01 WtEn= 6.31D-03
 Coeff-Com:  0.980D-02-0.434D-01-0.341D+00 0.137D+01
 Coeff-En:   0.000D+00 0.000D+00 0.000D+00 0.100D+01
 Coeff:      0.973D-02-0.432D-01-0.339D+00 0.137D+01
 Gap=     0.550 Goal=   None    Shift=    0.000
 RMSDP=1.02D-04 MaxDP=1.08D-03 DE=-8.78D-04 OVMax= 1.89D-03

 Cycle   5  Pass 1  IDiag  1:
 E= -76.0259741578191     Delta-E=       -0.000015272134 Rises=F Damp=F
 DIIS: error= 1.60D-04 at cycle   5 NSaved=   5.
 NSaved= 5 IEnMin= 5 EnMin= -76.0259741578191     IErMin= 5 ErrMin= 1.60D-04
 ErrMax= 1.60D-04  0.00D+00 EMaxC= 1.00D-01 BMatC= 2.37D-07 BMatP= 6.42D-06
 IDIUse=3 WtCom= 9.98D-01 WtEn= 1.60D-03
 Coeff-Com: -0.192D-02 0.105D-01 0.818D-01-0.470D+00 0.138D+01
 Coeff-En:   0.000D+00 0.000D+00 0.000D+00 0.000D+00 0.100D+01
 Coeff:     -0.191D-02 0.105D-01 0.817D-01-0.469D+00 0.138D+01
 Gap=     0.550 Goal=   None    Shift=    0.000
 RMSDP=2.24D-05 MaxDP=3.73D-04 DE=-1.53D-05 OVMax= 5.06D-04

 Cycle   6  Pass 1  IDiag  1:
 E= -76.0259748411890     Delta-E=       -0.000000683370 Rises=F Damp=F
 DIIS: error= 1.80D-05 at cycle   6 NSaved=   6.
 NSaved= 6 IEnMin= 6 EnMin= -76.0259748411890     IErMin= 6 ErrMin= 1.80D-05
 ErrMax= 1.80D-05  0.00D+00 EMaxC= 1.00D-01 BMatC= 6.15D-09 BMatP= 2.37D-07
 IDIUse=1 WtCom= 1.00D+00 WtEn= 0.00D+00
 Coeff-Com:  0.514D-04-0.603D-03-0.555D-02 0.528D-01-0.295D+00 0.125D+01
 Coeff:      0.514D-04-0.603D-03-0.555D-02 0.528D-01-0.295D+00 0.125D+01
 Gap=     0.550 Goal=   None    Shift=    0.000
 RMSDP=2.66D-06 MaxDP=5.29D-05 DE=-6.83D-07 OVMax= 7.18D-05

 Cycle   7  Pass 1  IDiag  1:
 E= -76.0259748565281     Delta-E=       -0.000000015339 Rises=F Damp=F
 DIIS: error= 3.19D-06 at cycle   7 NSaved=   7.
 NSaved= 7 IEnMin= 7 EnMin= -76.0259748565281     IErMin= 7 ErrMin= 3.19D-06
 ErrMax= 3.19D-06  0.00D+00 EMaxC= 1.00D-01 BMatC= 2.24D-10 BMatP= 6.15D-09
 IDIUse=1 WtCom= 1.00D+00 WtEn= 0.00D+00
 Coeff-Com:  0.960D-04-0.495D-03-0.382D-02 0.195D-01-0.378D-01-0.134D+00
 Coeff-Com:  0.116D+01
 Coeff:      0.960D-04-0.495D-03-0.382D-02 0.195D-01-0.378D-01-0.134D+00
 Coeff:      0.116D+01
 Gap=     0.550 Goal=   None    Shift=    0.000
 RMSDP=5.30D-07 MaxDP=7.95D-06 DE=-1.53D-08 OVMax= 1.24D-05

 Cycle   8  Pass 1  IDiag  1:
 E= -76.0259748570501     Delta-E=       -0.000000000522 Rises=F Damp=F
 DIIS: error= 5.41D-07 at cycle   8 NSaved=   8.
 NSaved= 8 IEnMin= 8 EnMin= -76.0259748570501     IErMin= 8 ErrMin= 5.41D-07
 ErrMax= 5.41D-07  0.00D+00 EMaxC= 1.00D-01 BMatC= 6.19D-12 BMatP= 2.24D-10
 IDIUse=1 WtCom= 1.00D+00 WtEn= 0.00D+00
 Coeff-Com: -0.188D-04 0.109D-03 0.884D-03-0.545D-02 0.169D-01-0.138D-01
 Coeff-Com: -0.248D+00 0.125D+01
 Coeff:     -0.188D-04 0.109D-03 0.884D-03-0.545D-02 0.169D-01-0.138D-01
 Coeff:     -0.248D+00 0.125D+01
 Gap=     0.550 Goal=   None    Shift=    0.000
 RMSDP=1.37D-07 MaxDP=1.79D-06 DE=-5.22D-10 OVMax= 2.40D-06

 Cycle   9  Pass 1  IDiag  1:
 E= -76.0259748570664     Delta-E=       -0.000000000016 Rises=F Damp=F
 DIIS: error= 8.15D-08 at cycle   9 NSaved=   9.
 NSaved= 9 IEnMin= 9 EnMin= -76.0259748570664     IErMin= 9 ErrMin= 8.15D-08
 ErrMax= 8.15D-08  0.00D+00 EMaxC= 1.00D-01 BMatC= 1.77D-13 BMatP= 6.19D-12
 IDIUse=1 WtCom= 1.00D+00 WtEn= 0.00D+00
 Coeff-Com:  0.172D-05-0.110D-04-0.103D-03 0.780D-03-0.300D-02 0.628D-02
 Coeff-Com:  0.330D-01-0.281D+00 0.124D+01
 Coeff:      0.172D-05-0.110D-04-0.103D-03 0.780D-03-0.300D-02 0.628D-02
 Coeff:      0.330D-01-0.281D+00 0.124D+01
 Gap=     0.550 Goal=   None    Shift=    0.000
 RMSDP=1.88D-08 MaxDP=2.10D-07 DE=-1.63D-11 OVMax= 2.83D-07

 Cycle  10  Pass 1  IDiag  1:
 E= -76.0259748570667     Delta-E=       -0.000000000000 Rises=F Damp=F
 DIIS: error= 1.72D-08 at cycle  10 NSaved=  10.
 NSaved=10 IEnMin=10 EnMin= -76.0259748570667     IErMin=10 ErrMin= 1.72D-08
 ErrMax= 1.72D-08  0.00D+00 EMaxC= 1.00D-01 BMatC= 6.97D-15 BMatP= 1.77D-13
 IDIUse=1 WtCom= 1.00D+00 WtEn= 0.00D+00
 Coeff-Com:  0.810D-07-0.813D-07 0.514D-05-0.907D-04 0.502D-03-0.176D-02
 Coeff-Com: -0.335D-02 0.530D-01-0.427D+00 0.138D+01
 Coeff:      0.810D-07-0.813D-07 0.514D-05-0.907D-04 0.502D-03-0.176D-02
 Coeff:     -0.335D-02 0.530D-01-0.427D+00 0.138D+01
 Gap=     0.550 Goal=   None    Shift=    0.000
 RMSDP=4.62D-09 MaxDP=4.83D-08 DE=-2.56D-13 OVMax= 8.44D-08

 SCF Done:  E(RHF) =  -76.0259748571     A.U. after   10 cycles
            NFock= 10  Conv=0.46D-08     -V/T= 1.9996
 KE= 7.606003049441D+01 PE=-1.994938435029D+02 EE= 3.791485948720D+01
 Leave Link  502 at Mon Feb 20 10:15:36 2023, MaxMem=   754974720 cpu:               0.5 elap:               0.1
 (Enter /opt/cluster/programs/g16-c.01/g16/l601.exe)
 Copying SCF densities to generalized density rwf, IOpCl= 0 IROHF=0.

 **********************************************************************

            Population analysis using the SCF Density.

 **********************************************************************

 Orbital symmetries:
       Occupied  (A') (A') (A') (A') (A")
       Virtual   (A') (A') (A') (A") (A') (A') (A') (A') (A') (A")
                 (A") (A') (A') (A') (A') (A') (A") (A') (A") (A')
                 (A') (A") (A') (A") (A') (A') (A") (A') (A') (A')
                 (A') (A") (A') (A") (A') (A')
 The electronic state is 1-A'.
 Alpha  occ. eigenvalues --  -20.58050  -1.38754  -0.68641  -0.63089  -0.51671
 Alpha virt. eigenvalues --    0.03369   0.05979   0.17037   0.19805   0.22382
 Alpha virt. eigenvalues --    0.23598   0.29062   0.36472   0.37586   0.39807
 Alpha virt. eigenvalues --    0.41174   0.56117   0.64285   0.65930   0.78739
 Alpha virt. eigenvalues --    0.96883   1.11084   1.12277   1.15033   1.29317
 Alpha virt. eigenvalues --    1.43204   1.46421   1.64177   2.01017   2.06922
 Alpha virt. eigenvalues --    2.09426   2.14435   2.57950   2.65278   2.76254
 Alpha virt. eigenvalues --    3.05606   3.68190   3.69549   3.70341   4.03794
 Alpha virt. eigenvalues --    4.36061
          Condensed to atoms (all electrons):
               1          2          3
     1  O    7.586819   0.320307   0.337590
     2  H    0.320307   0.541786  -0.008387
     3  H    0.337590  -0.008387   0.572375
 Mulliken charges:
               1
     1  O   -0.244716
     2  H    0.146293
     3  H    0.098423
 Sum of Mulliken charges =  -0.00000
 Mulliken charges with hydrogens summed into heavy atoms:
               1
     1  O   -0.000000
 Electronic spatial extent (au):  <R**2>=             19.1865
 Charge=             -0.0000 electrons
 Dipole moment (field-independent basis, Debye):
    X=             -0.0330    Y=             -2.2734    Z=             -0.0000  Tot=              2.2736
 Quadrupole moment (field-independent basis, Debye-Ang):
   XX=             -5.1815   YY=             -5.6569   ZZ=             -7.5016
   XY=             -0.0808   XZ=             -0.0000   YZ=              0.0000
 Traceless Quadrupole moment (field-independent basis, Debye-Ang):
   XX=              0.9318   YY=              0.4564   ZZ=             -1.3883
   XY=             -0.0808   XZ=             -0.0000   YZ=              0.0000
 Octapole moment (field-independent basis, Debye-Ang**2):
  XXX=             -0.0853  YYY=             -1.6031  ZZZ=             -0.0000  XYY=              0.0695
  XXY=             -1.1604  XXZ=             -0.0000  XZZ=             -0.0310  YZZ=             -0.3500
  YYZ=             -0.0000  XYZ=              0.0000
 Hexadecapole moment (field-independent basis, Debye-Ang**3):
 XXXX=             -6.3222 YYYY=             -7.1434 ZZZZ=             -6.6153 XXXY=              0.0465
 XXXZ=              0.0000 YYYX=             -0.0092 YYYZ=             -0.0000 ZZZX=              0.0000
 ZZZY=             -0.0000 XXYY=             -1.8214 XXZZ=             -2.2940 YYZZ=             -2.3877
 XXYZ=              0.0000 YYXZ=             -0.0000 ZZXY=              0.0312
 N-N= 9.492978664174D+00 E-N=-1.994938435804D+02  KE= 7.606003049441D+01
 Symmetry A'   KE= 7.160127792709D+01
 Symmetry A"   KE= 4.458752567324D+00
 No NMR shielding tensors so no spin-rotation constants.
 Leave Link  601 at Mon Feb 20 10:15:36 2023, MaxMem=   754974720 cpu:               0.3 elap:               0.1
 (Enter /opt/cluster/programs/g16-c.01/g16/l9999.exe)
 Unable to Open any file for archive entry.
 1\1\GINC-NODE102\SP\RHF\Aug-CC-pVDZ\H2O1\BOITTIER\20-Feb-2023\0\\#P HF
 /aug-cc-pVDZ scf(maxcycle=200)\\Gaussian input\\0,1\O,0,0.,0.11751,0.\
 H,0,0.7578497316,-0.4701504329,0.\H,0,-0.4849364588,-0.6513317464,0.\\
 Version=ES64L-G16RevC.01\State=1-A'\HF=-76.0259749\RMSD=4.624e-09\Dipo
 le=0.1636924,-0.879404,0.\Quadrupole=0.702287,0.3298605,-1.0321475,0.0
 129276,0.,0.\PG=CS [SG(H2O1)]\\@
 The archive entry for this job was punched.


 WHEN ALL ELSE FAILS, LOOK AT THE SCHRODINGER EQUATION.
     -- RUSSELL T. PACK, APRIL 1978
 Job cpu time:       0 days  0 hours  0 minutes  3.3 seconds.
 Elapsed time:       0 days  0 hours  0 minutes  0.8 seconds.
 File lengths (MBytes):  RWF=      6 Int=      0 D2E=      0 Chk=      1 Scr=      1
 Normal termination of Gaussian 16 at Mon Feb 20 10:15:36 2023.
