 Entering Gaussian System, Link 0=/opt/cluster/programs/g16-c.01/g16/g16
 Input=/scratch/boittier/jobs/tmp.7262040/gaussian_98_water_wb97_ptz.com
 Output=/scratch/boittier/jobs/tmp.7262040/gaussian_98_water_wb97_ptz.out
 Initial command:
 /opt/cluster/programs/g16-c.01/g16/l1.exe "/scratch/boittier/jobs/tmp.7262040/Gau-51466.inp" -scrdir="/scratch/boittier/jobs/tmp.7262040/"
 Entering Link 1 = /opt/cluster/programs/g16-c.01/g16/l1.exe PID=     51467.
  
 Copyright (c) 1988-2019, Gaussian, Inc.  All Rights Reserved.
  
 This is part of the Gaussian(R) 16 program.  It is based on
 the Gaussian(R) 09 system (copyright 2009, Gaussian, Inc.),
 the Gaussian(R) 03 system (copyright 2003, Gaussian, Inc.),
 the Gaussian(R) 98 system (copyright 1998, Gaussian, Inc.),
 the Gaussian(R) 94 system (copyright 1995, Gaussian, Inc.),
 the Gaussian 92(TM) system (copyright 1992, Gaussian, Inc.),
 the Gaussian 90(TM) system (copyright 1990, Gaussian, Inc.),
 the Gaussian 88(TM) system (copyright 1988, Gaussian, Inc.),
 the Gaussian 86(TM) system (copyright 1986, Carnegie Mellon
 University), and the Gaussian 82(TM) system (copyright 1983,
 Carnegie Mellon University). Gaussian is a federally registered
 trademark of Gaussian, Inc.
  
 This software contains proprietary and confidential information,
 including trade secrets, belonging to Gaussian, Inc.
  
 This software is provided under written license and may be
 used, copied, transmitted, or stored only in accord with that
 written license.
  
 The following legend is applicable only to US Government
 contracts under FAR:
  
                    RESTRICTED RIGHTS LEGEND
  
 Use, reproduction and disclosure by the US Government is
 subject to restrictions as set forth in subparagraphs (a)
 and (c) of the Commercial Computer Software - Restricted
 Rights clause in FAR 52.227-19.
  
 Gaussian, Inc.
 340 Quinnipiac St., Bldg. 40, Wallingford CT 06492
  
  
 ---------------------------------------------------------------
 Warning -- This program may not be used in any manner that
 competes with the business of Gaussian, Inc. or will provide
 assistance to any competitor of Gaussian, Inc.  The licensee
 of this program is prohibited from giving any competitor of
 Gaussian, Inc. access to this program.  By using this program,
 the user acknowledges that Gaussian, Inc. is engaged in the
 business of creating and licensing software in the field of
 computational chemistry and represents and warrants to the
 licensee that it is not a competitor of Gaussian, Inc. and that
 it will not use this program in any manner prohibited above.
 ---------------------------------------------------------------
  

 Cite this work as:
 Gaussian 16, Revision C.01,
 M. J. Frisch, G. W. Trucks, H. B. Schlegel, G. E. Scuseria, 
 M. A. Robb, J. R. Cheeseman, G. Scalmani, V. Barone, 
 G. A. Petersson, H. Nakatsuji, X. Li, M. Caricato, A. V. Marenich, 
 J. Bloino, B. G. Janesko, R. Gomperts, B. Mennucci, H. P. Hratchian, 
 J. V. Ortiz, A. F. Izmaylov, J. L. Sonnenberg, D. Williams-Young, 
 F. Ding, F. Lipparini, F. Egidi, J. Goings, B. Peng, A. Petrone, 
 T. Henderson, D. Ranasinghe, V. G. Zakrzewski, J. Gao, N. Rega, 
 G. Zheng, W. Liang, M. Hada, M. Ehara, K. Toyota, R. Fukuda, 
 J. Hasegawa, M. Ishida, T. Nakajima, Y. Honda, O. Kitao, H. Nakai, 
 T. Vreven, K. Throssell, J. A. Montgomery, Jr., J. E. Peralta, 
 F. Ogliaro, M. J. Bearpark, J. J. Heyd, E. N. Brothers, K. N. Kudin, 
 V. N. Staroverov, T. A. Keith, R. Kobayashi, J. Normand, 
 K. Raghavachari, A. P. Rendell, J. C. Burant, S. S. Iyengar, 
 J. Tomasi, M. Cossi, J. M. Millam, M. Klene, C. Adamo, R. Cammi, 
 J. W. Ochterski, R. L. Martin, K. Morokuma, O. Farkas, 
 J. B. Foresman, and D. J. Fox, Gaussian, Inc., Wallingford CT, 2019.
 
 ******************************************
 Gaussian 16:  ES64L-G16RevC.01  3-Jul-2019
                 8-Feb-2023 
 ******************************************
 %nproc=4
 Will use up to    4 processors via shared memory.
 %mem=5760MB
 %chk=gaussian_98_water_wb97_ptz.chk
 ------------------------------------
 #P wB97XD/6-311g** scf(maxcycle=200)
 ------------------------------------
 1/38=1,172=1/1;
 2/12=2,17=6,18=5,40=1/2;
 3/5=4,6=6,7=101,11=2,25=1,30=1,74=-58/1,2,3;
 4//1;
 5/5=2,7=200,38=5/2;
 6/7=2,8=2,9=2,10=2,28=1/1;
 99/5=1,9=1/99;
 Leave Link    1 at Wed Feb  8 14:41:35 2023, MaxMem=   754974720 cpu:               0.1 elap:               0.0
 (Enter /opt/cluster/programs/g16-c.01/g16/l101.exe)
 --------------
 Gaussian input
 --------------
 Symbolic Z-matrix:
 Charge =  0 Multiplicity = 1
 O                     0.        0.11751   0. 
 H                     0.75785  -0.47015   0. 
 H                    -0.89067  -0.23799   0. 
 
 ITRead=  0  0  0
 MicOpt= -1 -1 -1
 NAtoms=      3 NQM=        3 NQMF=       0 NMMI=      0 NMMIF=      0
                NMic=       0 NMicF=      0.
                    Isotopes and Nuclear Properties:
 (Nuclear quadrupole moments (NQMom) in fm**2, nuclear magnetic moments (NMagM)
  in nuclear magnetons)

  Atom         1           2           3
 IAtWgt=          16           1           1
 AtmWgt=  15.9949146   1.0078250   1.0078250
 NucSpn=           0           1           1
 AtZEff=  -0.0000000  -0.0000000  -0.0000000
 NQMom=    0.0000000   0.0000000   0.0000000
 NMagM=    0.0000000   2.7928460   2.7928460
 AtZNuc=   8.0000000   1.0000000   1.0000000
 Leave Link  101 at Wed Feb  8 14:41:35 2023, MaxMem=   754974720 cpu:               0.4 elap:               0.2
 (Enter /opt/cluster/programs/g16-c.01/g16/l202.exe)
                          Input orientation:                          
 ---------------------------------------------------------------------
 Center     Atomic      Atomic             Coordinates (Angstroms)
 Number     Number       Type             X           Y           Z
 ---------------------------------------------------------------------
      1          8           0        0.000000    0.117510    0.000000
      2          1           0        0.757850   -0.470150    0.000000
      3          1           0       -0.890673   -0.237993    0.000000
 ---------------------------------------------------------------------
                    Distance matrix (angstroms):
                    1          2          3
     1  O    0.000000
     2  H    0.959000   0.000000
     3  H    0.959000   1.664790   0.000000
 Stoichiometry    H2O
 Framework group  C2V[C2(O),SGV(H2)]
 Deg. of freedom     2
 Full point group                 C2V     NOp   4
 Largest Abelian subgroup         C2V     NOp   4
 Largest concise Abelian subgroup C2      NOp   2
                         Standard orientation:                         
 ---------------------------------------------------------------------
 Center     Atomic      Atomic             Coordinates (Angstroms)
 Number     Number       Type             X           Y           Z
 ---------------------------------------------------------------------
      1          8           0        0.000000    0.000000    0.095247
      2          1           0        0.000000    0.832395   -0.380988
      3          1           0       -0.000000   -0.832395   -0.380988
 ---------------------------------------------------------------------
 Rotational constants (GHZ):        1244.8157535         361.8621772         280.3621872
 Leave Link  202 at Wed Feb  8 14:41:35 2023, MaxMem=   754974720 cpu:               0.1 elap:               0.0
 (Enter /opt/cluster/programs/g16-c.01/g16/l301.exe)
 Standard basis: 6-311G(d,p) (5D, 7F)
 Ernie: Thresh=  0.10000D-02 Tol=  0.10000D-05 Strict=F.
 There are    15 symmetry adapted cartesian basis functions of A1  symmetry.
 There are     2 symmetry adapted cartesian basis functions of A2  symmetry.
 There are     5 symmetry adapted cartesian basis functions of B1  symmetry.
 There are     9 symmetry adapted cartesian basis functions of B2  symmetry.
 There are    14 symmetry adapted basis functions of A1  symmetry.
 There are     2 symmetry adapted basis functions of A2  symmetry.
 There are     5 symmetry adapted basis functions of B1  symmetry.
 There are     9 symmetry adapted basis functions of B2  symmetry.
    30 basis functions,    48 primitive gaussians,    31 cartesian basis functions
     5 alpha electrons        5 beta electrons
       nuclear repulsion energy         9.1466811287 Hartrees.
 IExCor= 4639 DFT=T Ex+Corr=wB97XD ExCW=0 ScaHFX=  1.000000
 ScaDFX=  1.000000  1.000000  1.000000  1.000000 ScalE2=  1.000000  1.000000
 IRadAn=      5 IRanWt=     -1 IRanGd=            0 ICorTp=0 IEmpDi=121
 HFx  wShort=  0.000000 wLong=  0.200000 cFull=  0.222036 cShort=  0.000000 cLong=  0.777964
 DFx  wShort=  0.000000 wLong=  0.200000 cFull=  0.000000 cShort=  0.000000 cLong=  1.000000
 NAtoms=    3 NActive=    3 NUniq=    2 SFac= 2.25D+00 NAtFMM=   60 NAOKFM=F Big=F
 Integral buffers will be    131072 words long.
 Raffenetti 2 integral format.
 Two-electron integral symmetry is turned on.
 R6Disp:  Grimme-D2 Dispersion energy=       -0.0000459535 Hartrees.
 Nuclear repulsion after empirical dispersion term =        9.1466351751 Hartrees.
 Leave Link  301 at Wed Feb  8 14:41:35 2023, MaxMem=   754974720 cpu:               0.2 elap:               0.1
 (Enter /opt/cluster/programs/g16-c.01/g16/l302.exe)
 NPDir=0 NMtPBC=     1 NCelOv=     1 NCel=       1 NClECP=     1 NCelD=      1
         NCelK=      1 NCelE2=     1 NClLst=     1 CellRange=     0.0.
 One-electron integrals computed using PRISM.
 One-electron integral symmetry used in STVInt
 NBasis=    30 RedAO= T EigKep=  2.19D-02  NBF=    14     2     5     9
 NBsUse=    30 1.00D-06 EigRej= -1.00D+00 NBFU=    14     2     5     9
 Precomputing XC quadrature grid using
 IXCGrd= 4 IRadAn=           5 IRanWt=          -1 IRanGd=           0 AccXCQ= 0.00D+00.
 Generated NRdTot=       0 NPtTot=           0 NUsed=           0 NTot=          32
 NSgBfM=    31    31    31    31    31 MxSgAt=     3 MxSgA2=     3.
 Leave Link  302 at Wed Feb  8 14:41:36 2023, MaxMem=   754974720 cpu:               1.4 elap:               0.5
 (Enter /opt/cluster/programs/g16-c.01/g16/l303.exe)
 DipDrv:  MaxL=1.
 Leave Link  303 at Wed Feb  8 14:41:36 2023, MaxMem=   754974720 cpu:               0.5 elap:               0.3
 (Enter /opt/cluster/programs/g16-c.01/g16/l401.exe)
 ExpMin= 1.03D-01 ExpMax= 8.59D+03 ExpMxC= 1.30D+03 IAcc=3 IRadAn=         5 AccDes= 0.00D+00
 Harris functional with IExCor= 4639 and IRadAn=       5 diagonalized for initial guess.
 HarFok:  IExCor= 4639 AccDes= 0.00D+00 IRadAn=         5 IDoV= 1 UseB2=F ITyADJ=14
 ICtDFT=  3500011 ScaDFX=  1.000000  1.000000  1.000000  1.000000
 FoFCou: FMM=F IPFlag=           0 FMFlag=      100000 FMFlg1=           0
         NFxFlg=           0 DoJE=T BraDBF=F KetDBF=T FulRan=T
         wScrn=  0.000000 ICntrl=       500 IOpCl=  0 I1Cent=   200000004 NGrid=           0
         NMat0=    1 NMatS0=      1 NMatT0=    0 NMatD0=    1 NMtDS0=    0 NMtDT0=    0
 Petite list used in FoFCou.
 Harris En= -73.6086130498878    
 JPrj=0 DoOrth=F DoCkMO=F.
 Initial guess orbital symmetries:
       Occupied  (A1) (A1) (B2) (A1) (B1)
       Virtual   (A1) (B2) (A1) (B2) (A1) (B1) (B2) (A1) (A2) (A1)
                 (B1) (B2) (A1) (B2) (A1) (B2) (B1) (A2) (A1) (B2)
                 (A1) (B1) (A1) (B2) (A1)
 The electronic state of the initial guess is 1-A1.
 Leave Link  401 at Wed Feb  8 14:41:37 2023, MaxMem=   754974720 cpu:               1.4 elap:               0.5
 (Enter /opt/cluster/programs/g16-c.01/g16/l502.exe)
 Keep R1 ints in memory in symmetry-blocked form, NReq=3688799.
 FoFCou: FMM=F IPFlag=           0 FMFlag=           0 FMFlg1=           0
         NFxFlg=           0 DoJE=F BraDBF=F KetDBF=F FulRan=T
         wScrn=  0.000000 ICntrl=       600 IOpCl=  0 I1Cent=           0 NGrid=           0
         NMat0=    1 NMatS0=    465 NMatT0=    0 NMatD0=    1 NMtDS0=    0 NMtDT0=    0
 Petite list used in FoFCou.
 Closed shell SCF:
 Using DIIS extrapolation, IDIIS=  1040.
 NGot=   754974720 LenX=   754939916 LenY=   754938514
 Requested convergence on RMS density matrix=1.00D-08 within 200 cycles.
 Requested convergence on MAX density matrix=1.00D-06.
 Requested convergence on             energy=1.00D-06.
 No special actions if energy rises.
 Integral accuracy reduced to 1.0D-05 until final iterations.

 Cycle   1  Pass 0  IDiag  1:
 E= -76.4078217717711    
 DIIS: error= 8.83D-02 at cycle   1 NSaved=   1.
 NSaved= 1 IEnMin= 1 EnMin= -76.4078217717711     IErMin= 1 ErrMin= 8.83D-02
 ErrMax= 8.83D-02  0.00D+00 EMaxC= 1.00D-01 BMatC= 1.29D-01 BMatP= 1.29D-01
 IDIUse=3 WtCom= 1.17D-01 WtEn= 8.83D-01
 Coeff-Com:  0.100D+01
 Coeff-En:   0.100D+01
 Coeff:      0.100D+01
 Gap=     0.490 Goal=   None    Shift=    0.000
 GapD=    0.490 DampG=2.000 DampE=0.500 DampFc=1.0000 IDamp=-1.
 RMSDP=2.25D-03 MaxDP=1.48D-02              OVMax= 3.42D-02

 Cycle   2  Pass 0  IDiag  1:
 E= -76.4171134488228     Delta-E=       -0.009291677052 Rises=F Damp=F
 DIIS: error= 5.93D-03 at cycle   2 NSaved=   2.
 NSaved= 2 IEnMin= 2 EnMin= -76.4171134488228     IErMin= 2 ErrMin= 5.93D-03
 ErrMax= 5.93D-03  0.00D+00 EMaxC= 1.00D-01 BMatC= 7.32D-04 BMatP= 1.29D-01
 IDIUse=3 WtCom= 9.41D-01 WtEn= 5.93D-02
 Coeff-Com:  0.402D-01 0.960D+00
 Coeff-En:   0.000D+00 0.100D+01
 Coeff:      0.378D-01 0.962D+00
 Gap=     0.509 Goal=   None    Shift=    0.000
 RMSDP=6.52D-04 MaxDP=8.66D-03 DE=-9.29D-03 OVMax= 8.03D-03

 Cycle   3  Pass 0  IDiag  1:
 E= -76.4172799350310     Delta-E=       -0.000166486208 Rises=F Damp=F
 DIIS: error= 4.26D-03 at cycle   3 NSaved=   3.
 NSaved= 3 IEnMin= 3 EnMin= -76.4172799350310     IErMin= 3 ErrMin= 4.26D-03
 ErrMax= 4.26D-03  0.00D+00 EMaxC= 1.00D-01 BMatC= 3.78D-04 BMatP= 7.32D-04
 IDIUse=3 WtCom= 9.57D-01 WtEn= 4.26D-02
 Coeff-Com:  0.195D-01 0.440D+00 0.540D+00
 Coeff-En:   0.000D+00 0.330D+00 0.670D+00
 Coeff:      0.187D-01 0.436D+00 0.546D+00
 Gap=     0.502 Goal=   None    Shift=    0.000
 RMSDP=3.08D-04 MaxDP=3.49D-03 DE=-1.66D-04 OVMax= 4.33D-03

 Cycle   4  Pass 0  IDiag  1:
 E= -76.4175043335971     Delta-E=       -0.000224398566 Rises=F Damp=F
 DIIS: error= 6.12D-04 at cycle   4 NSaved=   4.
 NSaved= 4 IEnMin= 4 EnMin= -76.4175043335971     IErMin= 4 ErrMin= 6.12D-04
 ErrMax= 6.12D-04  0.00D+00 EMaxC= 1.00D-01 BMatC= 7.08D-06 BMatP= 3.78D-04
 IDIUse=3 WtCom= 9.94D-01 WtEn= 6.12D-03
 Coeff-Com:  0.164D-02 0.480D-01 0.143D+00 0.808D+00
 Coeff-En:   0.000D+00 0.000D+00 0.000D+00 0.100D+01
 Coeff:      0.163D-02 0.477D-01 0.142D+00 0.809D+00
 Gap=     0.502 Goal=   None    Shift=    0.000
 RMSDP=5.29D-05 MaxDP=6.64D-04 DE=-2.24D-04 OVMax= 5.41D-04

 Cycle   5  Pass 0  IDiag  1:
 E= -76.4175088949023     Delta-E=       -0.000004561305 Rises=F Damp=F
 DIIS: error= 6.70D-05 at cycle   5 NSaved=   5.
 NSaved= 5 IEnMin= 5 EnMin= -76.4175088949023     IErMin= 5 ErrMin= 6.70D-05
 ErrMax= 6.70D-05  0.00D+00 EMaxC= 1.00D-01 BMatC= 6.92D-08 BMatP= 7.08D-06
 IDIUse=1 WtCom= 1.00D+00 WtEn= 0.00D+00
 Coeff-Com: -0.738D-03-0.197D-01-0.275D-01-0.561D-01 0.110D+01
 Coeff:     -0.738D-03-0.197D-01-0.275D-01-0.561D-01 0.110D+01
 Gap=     0.502 Goal=   None    Shift=    0.000
 RMSDP=2.23D-05 MaxDP=2.12D-04 DE=-4.56D-06 OVMax= 3.30D-04

 Cycle   6  Pass 0  IDiag  1:
 E= -76.4175090724636     Delta-E=       -0.000000177561 Rises=F Damp=F
 DIIS: error= 1.13D-05 at cycle   6 NSaved=   6.
 NSaved= 6 IEnMin= 6 EnMin= -76.4175090724636     IErMin= 6 ErrMin= 1.13D-05
 ErrMax= 1.13D-05  0.00D+00 EMaxC= 1.00D-01 BMatC= 3.84D-09 BMatP= 6.92D-08
 IDIUse=1 WtCom= 1.00D+00 WtEn= 0.00D+00
 Coeff-Com:  0.156D-03 0.370D-02 0.538D-02-0.107D-01-0.243D+00 0.124D+01
 Coeff:      0.156D-03 0.370D-02 0.538D-02-0.107D-01-0.243D+00 0.124D+01
 Gap=     0.502 Goal=   None    Shift=    0.000
 RMSDP=5.46D-06 MaxDP=5.98D-05 DE=-1.78D-07 OVMax= 8.41D-05

 Initial convergence to 1.0D-05 achieved.  Increase integral accuracy.
 Cycle   7  Pass 1  IDiag  1:
 E= -76.4175059769886     Delta-E=        0.000003095475 Rises=F Damp=F
 DIIS: error= 1.74D-05 at cycle   1 NSaved=   1.
 NSaved= 1 IEnMin= 1 EnMin= -76.4175059769886     IErMin= 1 ErrMin= 1.74D-05
 ErrMax= 1.74D-05  0.00D+00 EMaxC= 1.00D-01 BMatC= 6.32D-09 BMatP= 6.32D-09
 IDIUse=1 WtCom= 1.00D+00 WtEn= 0.00D+00
 Coeff-Com:  0.100D+01
 Coeff:      0.100D+01
 Gap=     0.502 Goal=   None    Shift=    0.000
 RMSDP=5.46D-06 MaxDP=5.98D-05 DE= 3.10D-06 OVMax= 2.47D-05

 Cycle   8  Pass 1  IDiag  1:
 E= -76.4175059824676     Delta-E=       -0.000000005479 Rises=F Damp=F
 DIIS: error= 2.50D-06 at cycle   2 NSaved=   2.
 NSaved= 2 IEnMin= 2 EnMin= -76.4175059824676     IErMin= 2 ErrMin= 2.50D-06
 ErrMax= 2.50D-06  0.00D+00 EMaxC= 1.00D-01 BMatC= 1.24D-10 BMatP= 6.32D-09
 IDIUse=1 WtCom= 1.00D+00 WtEn= 0.00D+00
 Coeff-Com: -0.622D-01 0.106D+01
 Coeff:     -0.622D-01 0.106D+01
 Gap=     0.502 Goal=   None    Shift=    0.000
 RMSDP=3.88D-07 MaxDP=2.02D-06 DE=-5.48D-09 OVMax= 7.25D-06

 Cycle   9  Pass 1  IDiag  1:
 E= -76.4175059825841     Delta-E=       -0.000000000116 Rises=F Damp=F
 DIIS: error= 1.37D-06 at cycle   3 NSaved=   3.
 NSaved= 3 IEnMin= 3 EnMin= -76.4175059825841     IErMin= 3 ErrMin= 1.37D-06
 ErrMax= 1.37D-06  0.00D+00 EMaxC= 1.00D-01 BMatC= 3.78D-11 BMatP= 1.24D-10
 IDIUse=1 WtCom= 1.00D+00 WtEn= 0.00D+00
 Coeff-Com: -0.338D-01 0.370D+00 0.664D+00
 Coeff:     -0.338D-01 0.370D+00 0.664D+00
 Gap=     0.502 Goal=   None    Shift=    0.000
 RMSDP=1.17D-07 MaxDP=1.49D-06 DE=-1.16D-10 OVMax= 1.71D-06

 Cycle  10  Pass 1  IDiag  1:
 E= -76.4175059826077     Delta-E=       -0.000000000024 Rises=F Damp=F
 DIIS: error= 3.77D-07 at cycle   4 NSaved=   4.
 NSaved= 4 IEnMin= 4 EnMin= -76.4175059826077     IErMin= 4 ErrMin= 3.77D-07
 ErrMax= 3.77D-07  0.00D+00 EMaxC= 1.00D-01 BMatC= 4.12D-12 BMatP= 3.78D-11
 IDIUse=1 WtCom= 1.00D+00 WtEn= 0.00D+00
 Coeff-Com: -0.696D-02 0.302D-01 0.244D+00 0.733D+00
 Coeff:     -0.696D-02 0.302D-01 0.244D+00 0.733D+00
 Gap=     0.502 Goal=   None    Shift=    0.000
 RMSDP=5.48D-08 MaxDP=5.18D-07 DE=-2.36D-11 OVMax= 1.13D-06

 Cycle  11  Pass 1  IDiag  1:
 E= -76.4175059826116     Delta-E=       -0.000000000004 Rises=F Damp=F
 DIIS: error= 7.16D-08 at cycle   5 NSaved=   5.
 NSaved= 5 IEnMin= 5 EnMin= -76.4175059826116     IErMin= 5 ErrMin= 7.16D-08
 ErrMax= 7.16D-08  0.00D+00 EMaxC= 1.00D-01 BMatC= 1.51D-13 BMatP= 4.12D-12
 IDIUse=1 WtCom= 1.00D+00 WtEn= 0.00D+00
 Coeff-Com:  0.298D-02-0.328D-01-0.772D-01-0.236D-01 0.113D+01
 Coeff:      0.298D-02-0.328D-01-0.772D-01-0.236D-01 0.113D+01
 Gap=     0.502 Goal=   None    Shift=    0.000
 RMSDP=2.94D-08 MaxDP=1.99D-07 DE=-3.89D-12 OVMax= 5.99D-07

 Cycle  12  Pass 1  IDiag  1:
 E= -76.4175059826120     Delta-E=       -0.000000000000 Rises=F Damp=F
 DIIS: error= 1.17D-08 at cycle   6 NSaved=   6.
 NSaved= 6 IEnMin= 6 EnMin= -76.4175059826120     IErMin= 6 ErrMin= 1.17D-08
 ErrMax= 1.17D-08  0.00D+00 EMaxC= 1.00D-01 BMatC= 2.92D-15 BMatP= 1.51D-13
 IDIUse=1 WtCom= 1.00D+00 WtEn= 0.00D+00
 Coeff-Com: -0.114D-03 0.286D-02 0.416D-02-0.201D-01-0.202D+00 0.122D+01
 Coeff:     -0.114D-03 0.286D-02 0.416D-02-0.201D-01-0.202D+00 0.122D+01
 Gap=     0.502 Goal=   None    Shift=    0.000
 RMSDP=6.89D-09 MaxDP=7.18D-08 DE=-3.55D-13 OVMax= 1.35D-07

 SCF Done:  E(RwB97XD) =  -76.4175059826     A.U. after   12 cycles
            NFock= 12  Conv=0.69D-08     -V/T= 2.0020
 KE= 7.626746626159D+01 PE=-1.994695416665D+02 EE= 3.763793424716D+01
 Leave Link  502 at Wed Feb  8 14:41:42 2023, MaxMem=   754974720 cpu:              10.1 elap:               5.1
 (Enter /opt/cluster/programs/g16-c.01/g16/l601.exe)
 Copying SCF densities to generalized density rwf, IOpCl= 0 IROHF=0.

 **********************************************************************

            Population analysis using the SCF Density.

 **********************************************************************

 Orbital symmetries:
       Occupied  (A1) (A1) (B2) (A1) (B1)
       Virtual   (A1) (B2) (A1) (B2) (A1) (B1) (B2) (A1) (A2) (A1)
                 (B1) (B2) (A1) (B2) (A1) (B2) (B1) (A1) (A2) (B2)
                 (A1) (B1) (A1) (B2) (A1)
 The electronic state is 1-A1.
 Alpha  occ. eigenvalues --  -19.21680  -1.09032  -0.63462  -0.43188  -0.38135
 Alpha virt. eigenvalues --    0.12109   0.19282   0.45962   0.50049   0.85093
 Alpha virt. eigenvalues --    0.85786   0.94355   1.15070   1.31114   1.54103
 Alpha virt. eigenvalues --    1.62142   1.64463   2.08495   2.10558   2.48374
 Alpha virt. eigenvalues --    2.52631   3.12176   3.30277   3.30559   3.82477
 Alpha virt. eigenvalues --    3.84495   4.88809   5.18948   5.83278  50.00155
          Condensed to atoms (all electrons):
               1          2          3
     1  O    7.877533   0.332920   0.332920
     2  H    0.332920   0.424453  -0.029059
     3  H    0.332920  -0.029059   0.424453
 Mulliken charges:
               1
     1  O   -0.543373
     2  H    0.271687
     3  H    0.271687
 Sum of Mulliken charges =  -0.00000
 Mulliken charges with hydrogens summed into heavy atoms:
               1
     1  O   -0.000000
 Electronic spatial extent (au):  <R**2>=             18.9964
 Charge=              0.0000 electrons
 Dipole moment (field-independent basis, Debye):
    X=             -0.0000    Y=              0.0000    Z=             -1.8364  Tot=              1.8364
 Quadrupole moment (field-independent basis, Debye-Ang):
   XX=             -7.1881   YY=             -3.5297   ZZ=             -6.4339
   XY=              0.0000   XZ=              0.0000   YZ=             -0.0000
 Traceless Quadrupole moment (field-independent basis, Debye-Ang):
   XX=             -1.4708   YY=              2.1875   ZZ=             -0.7167
   XY=              0.0000   XZ=              0.0000   YZ=             -0.0000
 Octapole moment (field-independent basis, Debye-Ang**2):
  XXX=              0.0000  YYY=              0.0000  ZZZ=             -0.9916  XYY=             -0.0000
  XXY=             -0.0000  XXZ=             -0.2844  XZZ=              0.0000  YZZ=              0.0000
  YYZ=             -1.2769  XYZ=             -0.0000
 Hexadecapole moment (field-independent basis, Debye-Ang**3):
 XXXX=             -5.2762 YYYY=             -5.2089 ZZZZ=             -6.0167 XXXY=             -0.0000
 XXXZ=             -0.0000 YYYX=              0.0000 YYYZ=             -0.0000 ZZZX=             -0.0000
 ZZZY=              0.0000 XXYY=             -2.1824 XXZZ=             -1.9064 YYZZ=             -1.7844
 XXYZ=              0.0000 YYXZ=              0.0000 ZZXY=             -0.0000
 N-N= 9.146635175127D+00 E-N=-1.994695415270D+02  KE= 7.626746626159D+01
 Symmetry A1   KE= 6.808087320435D+01
 Symmetry A2   KE= 3.543767395580D-35
 Symmetry B1   KE= 4.617297717204D+00
 Symmetry B2   KE= 3.569295340040D+00
 No NMR shielding tensors so no spin-rotation constants.
 Leave Link  601 at Wed Feb  8 14:41:43 2023, MaxMem=   754974720 cpu:               1.6 elap:               0.8
 (Enter /opt/cluster/programs/g16-c.01/g16/l9999.exe)
 Unable to Open any file for archive entry.
 1\1\GINC-NODE63\SP\RwB97XD\6-311G(d,p)\H2O1\BOITTIER\08-Feb-2023\0\\#P
  wB97XD/6-311g** scf(maxcycle=200)\\Gaussian input\\0,1\O,0,0.,0.11751
 ,0.\H,0,0.7578497316,-0.4701504329,0.\H,0,-0.8906732822,-0.2379926082,
 0.\\Version=ES64L-G16RevC.01\State=1-A1\HF=-76.417506\RMSD=6.889e-09\D
 ipole=-0.1007512,-0.7154213,0.\Quadrupole=1.5843528,-0.4908256,-1.0935
 272,-0.2981559,0.,0.\PG=C02V [C2(O1),SGV(H2)]\\@
 The archive entry for this job was punched.


       THE DEATH-KNELL OF THE ATOM

 SO THE ATOMS IN TURN, WE NOW CLEARLY DISCERN,
 FLY TO BITS WITH THE UTMOST FACILITY;
 THEY WEND ON THEIR WAY, AND, IN SPLITTING, DISPLAY
 AN ABSOLUTE LACK OF STABILITY.

          SIR WM. RAMSAY, 1905
 Job cpu time:       0 days  0 hours  0 minutes 16.0 seconds.
 Elapsed time:       0 days  0 hours  0 minutes  7.5 seconds.
 File lengths (MBytes):  RWF=      6 Int=      0 D2E=      0 Chk=      1 Scr=      1
 Normal termination of Gaussian 16 at Wed Feb  8 14:41:43 2023.
