 Entering Gaussian System, Link 0=/opt/cluster/programs/g16-c.01/g16/g16
 Input=/scratch/boittier/jobs/tmp.7261688/gaussian_24_water_ccsdt_atz.com
 Output=/scratch/boittier/jobs/tmp.7261688/gaussian_24_water_ccsdt_atz.out
 Initial command:
 /opt/cluster/programs/g16-c.01/g16/l1.exe "/scratch/boittier/jobs/tmp.7261688/Gau-150238.inp" -scrdir="/scratch/boittier/jobs/tmp.7261688/"
 Entering Link 1 = /opt/cluster/programs/g16-c.01/g16/l1.exe PID=    150239.
  
 Copyright (c) 1988-2019, Gaussian, Inc.  All Rights Reserved.
  
 This is part of the Gaussian(R) 16 program.  It is based on
 the Gaussian(R) 09 system (copyright 2009, Gaussian, Inc.),
 the Gaussian(R) 03 system (copyright 2003, Gaussian, Inc.),
 the Gaussian(R) 98 system (copyright 1998, Gaussian, Inc.),
 the Gaussian(R) 94 system (copyright 1995, Gaussian, Inc.),
 the Gaussian 92(TM) system (copyright 1992, Gaussian, Inc.),
 the Gaussian 90(TM) system (copyright 1990, Gaussian, Inc.),
 the Gaussian 88(TM) system (copyright 1988, Gaussian, Inc.),
 the Gaussian 86(TM) system (copyright 1986, Carnegie Mellon
 University), and the Gaussian 82(TM) system (copyright 1983,
 Carnegie Mellon University). Gaussian is a federally registered
 trademark of Gaussian, Inc.
  
 This software contains proprietary and confidential information,
 including trade secrets, belonging to Gaussian, Inc.
  
 This software is provided under written license and may be
 used, copied, transmitted, or stored only in accord with that
 written license.
  
 The following legend is applicable only to US Government
 contracts under FAR:
  
                    RESTRICTED RIGHTS LEGEND
  
 Use, reproduction and disclosure by the US Government is
 subject to restrictions as set forth in subparagraphs (a)
 and (c) of the Commercial Computer Software - Restricted
 Rights clause in FAR 52.227-19.
  
 Gaussian, Inc.
 340 Quinnipiac St., Bldg. 40, Wallingford CT 06492
  
  
 ---------------------------------------------------------------
 Warning -- This program may not be used in any manner that
 competes with the business of Gaussian, Inc. or will provide
 assistance to any competitor of Gaussian, Inc.  The licensee
 of this program is prohibited from giving any competitor of
 Gaussian, Inc. access to this program.  By using this program,
 the user acknowledges that Gaussian, Inc. is engaged in the
 business of creating and licensing software in the field of
 computational chemistry and represents and warrants to the
 licensee that it is not a competitor of Gaussian, Inc. and that
 it will not use this program in any manner prohibited above.
 ---------------------------------------------------------------
  

 Cite this work as:
 Gaussian 16, Revision C.01,
 M. J. Frisch, G. W. Trucks, H. B. Schlegel, G. E. Scuseria, 
 M. A. Robb, J. R. Cheeseman, G. Scalmani, V. Barone, 
 G. A. Petersson, H. Nakatsuji, X. Li, M. Caricato, A. V. Marenich, 
 J. Bloino, B. G. Janesko, R. Gomperts, B. Mennucci, H. P. Hratchian, 
 J. V. Ortiz, A. F. Izmaylov, J. L. Sonnenberg, D. Williams-Young, 
 F. Ding, F. Lipparini, F. Egidi, J. Goings, B. Peng, A. Petrone, 
 T. Henderson, D. Ranasinghe, V. G. Zakrzewski, J. Gao, N. Rega, 
 G. Zheng, W. Liang, M. Hada, M. Ehara, K. Toyota, R. Fukuda, 
 J. Hasegawa, M. Ishida, T. Nakajima, Y. Honda, O. Kitao, H. Nakai, 
 T. Vreven, K. Throssell, J. A. Montgomery, Jr., J. E. Peralta, 
 F. Ogliaro, M. J. Bearpark, J. J. Heyd, E. N. Brothers, K. N. Kudin, 
 V. N. Staroverov, T. A. Keith, R. Kobayashi, J. Normand, 
 K. Raghavachari, A. P. Rendell, J. C. Burant, S. S. Iyengar, 
 J. Tomasi, M. Cossi, J. M. Millam, M. Klene, C. Adamo, R. Cammi, 
 J. W. Ochterski, R. L. Martin, K. Morokuma, O. Farkas, 
 J. B. Foresman, and D. J. Fox, Gaussian, Inc., Wallingford CT, 2019.
 
 ******************************************
 Gaussian 16:  ES64L-G16RevC.01  3-Jul-2019
                 8-Feb-2023 
 ******************************************
 %nproc=4
 Will use up to    4 processors via shared memory.
 %mem=5760MB
 %chk=gaussian_24_water_ccsdt_atz.chk
 ----------------------------------------
 #P CCSD(T)/aug-cc-pVTZ scf(maxcycle=200)
 ----------------------------------------
 1/38=1,172=1/1;
 2/12=2,17=6,18=5,40=1/2;
 3/5=16,6=1,7=10,11=9,25=1,30=1/1,2,3;
 4//1;
 5/5=2,7=200,38=5/2;
 8/6=4,9=120000,10=1/1,4;
 9/5=7,14=2/13;
 6/7=2,8=2,9=2,10=2/1;
 99/5=1,9=1/99;
 Leave Link    1 at Wed Feb  8 13:49:03 2023, MaxMem=   754974720 cpu:               0.1 elap:               0.0
 (Enter /opt/cluster/programs/g16-c.01/g16/l101.exe)
 --------------
 Gaussian input
 --------------
 Symbolic Z-matrix:
 Charge =  0 Multiplicity = 1
 O                     0.        0.11751   0. 
 H                     0.71834  -0.43951   0. 
 H                    -0.61952  -0.61453   0. 
 
 ITRead=  0  0  0
 MicOpt= -1 -1 -1
 NAtoms=      3 NQM=        3 NQMF=       0 NMMI=      0 NMMIF=      0
                NMic=       0 NMicF=      0.
                    Isotopes and Nuclear Properties:
 (Nuclear quadrupole moments (NQMom) in fm**2, nuclear magnetic moments (NMagM)
  in nuclear magnetons)

  Atom         1           2           3
 IAtWgt=          16           1           1
 AtmWgt=  15.9949146   1.0078250   1.0078250
 NucSpn=           0           1           1
 AtZEff=  -0.0000000  -0.0000000  -0.0000000
 NQMom=    0.0000000   0.0000000   0.0000000
 NMagM=    0.0000000   2.7928460   2.7928460
 AtZNuc=   8.0000000   1.0000000   1.0000000
 Leave Link  101 at Wed Feb  8 13:49:03 2023, MaxMem=   754974720 cpu:               0.3 elap:               0.2
 (Enter /opt/cluster/programs/g16-c.01/g16/l202.exe)
                          Input orientation:                          
 ---------------------------------------------------------------------
 Center     Atomic      Atomic             Coordinates (Angstroms)
 Number     Number       Type             X           Y           Z
 ---------------------------------------------------------------------
      1          8           0        0.000000    0.117510    0.000000
      2          1           0        0.718337   -0.439511    0.000000
      3          1           0       -0.619519   -0.614526    0.000000
 ---------------------------------------------------------------------
                    Distance matrix (angstroms):
                    1          2          3
     1  O    0.000000
     2  H    0.909000   0.000000
     3  H    0.959000   1.349256   0.000000
 Stoichiometry    H2O
 Framework group  CS[SG(H2O)]
 Deg. of freedom     3
 Full point group                 CS      NOp   2
 Largest Abelian subgroup         CS      NOp   2
 Largest concise Abelian subgroup C1      NOp   1
                         Standard orientation:                         
 ---------------------------------------------------------------------
 Center     Atomic      Atomic             Coordinates (Angstroms)
 Number     Number       Type             X           Y           Z
 ---------------------------------------------------------------------
      1          8           0        0.000000    0.129284    0.000000
      2          1           0        0.673660   -0.481014    0.000000
      3          1           0       -0.673660   -0.553258    0.000000
 ---------------------------------------------------------------------
 Rotational constants (GHZ):         685.6470867         544.4252202         303.4647346
 Leave Link  202 at Wed Feb  8 13:49:03 2023, MaxMem=   754974720 cpu:               0.1 elap:               0.1
 (Enter /opt/cluster/programs/g16-c.01/g16/l301.exe)
 Standard basis: Aug-CC-pVTZ (5D, 7F)
 Ernie: Thresh=  0.10000D-02 Tol=  0.10000D-05 Strict=F.
 Ernie:  3 primitive shells out of 52 were deleted.
 There are    73 symmetry adapted cartesian basis functions of A'  symmetry.
 There are    32 symmetry adapted cartesian basis functions of A"  symmetry.
 There are    62 symmetry adapted basis functions of A'  symmetry.
 There are    30 symmetry adapted basis functions of A"  symmetry.
    92 basis functions,   126 primitive gaussians,   105 cartesian basis functions
     5 alpha electrons        5 beta electrons
       nuclear repulsion energy         9.4638329891 Hartrees.
 IExCor=    0 DFT=F Ex=HF Corr=None ExCW=0 ScaHFX=  1.000000
 ScaDFX=  1.000000  1.000000  1.000000  1.000000 ScalE2=  1.000000  1.000000
 IRadAn=      5 IRanWt=     -1 IRanGd=            0 ICorTp=0 IEmpDi=  4
 NAtoms=    3 NActive=    3 NUniq=    3 SFac= 1.00D+00 NAtFMM=   60 NAOKFM=F Big=F
 Integral buffers will be    131072 words long.
 Raffenetti 1 integral format.
 Two-electron integral symmetry is turned on.
 Leave Link  301 at Wed Feb  8 13:49:03 2023, MaxMem=   754974720 cpu:               0.1 elap:               0.0
 (Enter /opt/cluster/programs/g16-c.01/g16/l302.exe)
 NPDir=0 NMtPBC=     1 NCelOv=     1 NCel=       1 NClECP=     1 NCelD=      1
         NCelK=      1 NCelE2=     1 NClLst=     1 CellRange=     0.0.
 One-electron integrals computed using PRISM.
 One-electron integral symmetry used in STVInt
 NBasis=    92 RedAO= T EigKep=  3.42D-04  NBF=    62    30
 NBsUse=    92 1.00D-06 EigRej= -1.00D+00 NBFU=    62    30
 Leave Link  302 at Wed Feb  8 13:49:04 2023, MaxMem=   754974720 cpu:               2.0 elap:               0.8
 (Enter /opt/cluster/programs/g16-c.01/g16/l303.exe)
 DipDrv:  MaxL=1.
 Leave Link  303 at Wed Feb  8 13:49:04 2023, MaxMem=   754974720 cpu:               0.5 elap:               0.2
 (Enter /opt/cluster/programs/g16-c.01/g16/l401.exe)
 ExpMin= 2.53D-02 ExpMax= 1.53D+04 ExpMxC= 5.22D+02 IAcc=3 IRadAn=         5 AccDes= 0.00D+00
 Harris functional with IExCor=  205 and IRadAn=       5 diagonalized for initial guess.
 HarFok:  IExCor=  205 AccDes= 0.00D+00 IRadAn=         5 IDoV= 1 UseB2=F ITyADJ=14
 ICtDFT=  3500011 ScaDFX=  1.000000  1.000000  1.000000  1.000000
 FoFCou: FMM=F IPFlag=           0 FMFlag=      100000 FMFlg1=           0
         NFxFlg=           0 DoJE=T BraDBF=F KetDBF=T FulRan=T
         wScrn=  0.000000 ICntrl=       500 IOpCl=  0 I1Cent=   200000004 NGrid=           0
         NMat0=    1 NMatS0=      1 NMatT0=    0 NMatD0=    1 NMtDS0=    0 NMtDT0=    0
 Petite list used in FoFCou.
 Harris En= -76.1474796082366    
 JPrj=0 DoOrth=F DoCkMO=F.
 Initial guess orbital symmetries:
       Occupied  (A') (A') (A') (A') (A")
       Virtual   (A') (A') (A') (A") (A') (A') (A') (A') (A") (A")
                 (A') (A') (A') (A') (A') (A') (A') (A") (A") (A")
                 (A') (A') (A') (A") (A') (A") (A') (A') (A') (A")
                 (A') (A') (A") (A') (A') (A") (A") (A') (A') (A')
                 (A') (A") (A") (A') (A') (A") (A') (A') (A') (A")
                 (A') (A') (A") (A') (A') (A") (A') (A") (A") (A')
                 (A') (A") (A") (A') (A') (A') (A') (A") (A') (A')
                 (A") (A') (A') (A') (A") (A') (A") (A") (A') (A")
                 (A') (A") (A') (A') (A') (A') (A')
 The electronic state of the initial guess is 1-A'.
 Leave Link  401 at Wed Feb  8 13:49:04 2023, MaxMem=   754974720 cpu:               1.9 elap:               0.6
 (Enter /opt/cluster/programs/g16-c.01/g16/l502.exe)
 Keep R1 ints in memory in symmetry-blocked form, NReq=13818732.
 FoFCou: FMM=F IPFlag=           0 FMFlag=           0 FMFlg1=           0
         NFxFlg=           0 DoJE=F BraDBF=F KetDBF=F FulRan=T
         wScrn=  0.000000 ICntrl=       600 IOpCl=  0 I1Cent=           0 NGrid=           0
         NMat0=    1 NMatS0=   4278 NMatT0=    0 NMatD0=    1 NMtDS0=    0 NMtDT0=    0
 Petite list used in FoFCou.
 Closed shell SCF:
 Using DIIS extrapolation, IDIIS=  1040.
 NGot=   754974720 LenX=   750285684 LenY=   750274218
 Requested convergence on RMS density matrix=1.00D-08 within 200 cycles.
 Requested convergence on MAX density matrix=1.00D-06.
 Requested convergence on             energy=1.00D-06.
 No special actions if energy rises.

 Cycle   1  Pass 1  IDiag  1:
 E= -75.9617960598111    
 DIIS: error= 5.20D-02 at cycle   1 NSaved=   1.
 NSaved= 1 IEnMin= 1 EnMin= -75.9617960598111     IErMin= 1 ErrMin= 5.20D-02
 ErrMax= 5.20D-02  0.00D+00 EMaxC= 1.00D-01 BMatC= 2.10D-01 BMatP= 2.10D-01
 IDIUse=3 WtCom= 4.80D-01 WtEn= 5.20D-01
 Coeff-Com:  0.100D+01
 Coeff-En:   0.100D+01
 Coeff:      0.100D+01
 Gap=     0.453 Goal=   None    Shift=    0.000
 GapD=    0.453 DampG=2.000 DampE=0.500 DampFc=1.0000 IDamp=-1.
 RMSDP=2.21D-03 MaxDP=4.98D-02              OVMax= 1.25D-01

 Cycle   2  Pass 1  IDiag  1:
 E= -76.0166891390023     Delta-E=       -0.054893079191 Rises=F Damp=F
 DIIS: error= 3.27D-02 at cycle   2 NSaved=   2.
 NSaved= 2 IEnMin= 2 EnMin= -76.0166891390023     IErMin= 2 ErrMin= 3.27D-02
 ErrMax= 3.27D-02  0.00D+00 EMaxC= 1.00D-01 BMatC= 6.06D-02 BMatP= 2.10D-01
 IDIUse=3 WtCom= 6.73D-01 WtEn= 3.27D-01
 Coeff-Com:  0.323D+00 0.677D+00
 Coeff-En:   0.193D+00 0.807D+00
 Coeff:      0.280D+00 0.720D+00
 Gap=     0.570 Goal=   None    Shift=    0.000
 RMSDP=1.32D-03 MaxDP=3.57D-02 DE=-5.49D-02 OVMax= 6.46D-02

 Cycle   3  Pass 1  IDiag  1:
 E= -76.0523640246431     Delta-E=       -0.035674885641 Rises=F Damp=F
 DIIS: error= 6.48D-03 at cycle   3 NSaved=   3.
 NSaved= 3 IEnMin= 3 EnMin= -76.0523640246431     IErMin= 3 ErrMin= 6.48D-03
 ErrMax= 6.48D-03  0.00D+00 EMaxC= 1.00D-01 BMatC= 2.59D-03 BMatP= 6.06D-02
 IDIUse=3 WtCom= 9.35D-01 WtEn= 6.48D-02
 Coeff-Com: -0.303D-01 0.139D+00 0.891D+00
 Coeff-En:   0.000D+00 0.000D+00 0.100D+01
 Coeff:     -0.283D-01 0.130D+00 0.898D+00
 Gap=     0.543 Goal=   None    Shift=    0.000
 RMSDP=2.05D-04 MaxDP=3.98D-03 DE=-3.57D-02 OVMax= 1.19D-02

 Cycle   4  Pass 1  IDiag  1:
 E= -76.0539665562274     Delta-E=       -0.001602531584 Rises=F Damp=F
 DIIS: error= 4.96D-04 at cycle   4 NSaved=   4.
 NSaved= 4 IEnMin= 4 EnMin= -76.0539665562274     IErMin= 4 ErrMin= 4.96D-04
 ErrMax= 4.96D-04  0.00D+00 EMaxC= 1.00D-01 BMatC= 1.03D-05 BMatP= 2.59D-03
 IDIUse=3 WtCom= 9.95D-01 WtEn= 4.96D-03
 Coeff-Com:  0.724D-02-0.515D-01-0.264D+00 0.131D+01
 Coeff-En:   0.000D+00 0.000D+00 0.000D+00 0.100D+01
 Coeff:      0.721D-02-0.513D-01-0.262D+00 0.131D+01
 Gap=     0.544 Goal=   None    Shift=    0.000
 RMSDP=3.55D-05 MaxDP=6.47D-04 DE=-1.60D-03 OVMax= 2.07D-03

 Cycle   5  Pass 1  IDiag  1:
 E= -76.0539861447278     Delta-E=       -0.000019588500 Rises=F Damp=F
 DIIS: error= 1.44D-04 at cycle   5 NSaved=   5.
 NSaved= 5 IEnMin= 5 EnMin= -76.0539861447278     IErMin= 5 ErrMin= 1.44D-04
 ErrMax= 1.44D-04  0.00D+00 EMaxC= 1.00D-01 BMatC= 5.24D-07 BMatP= 1.03D-05
 IDIUse=3 WtCom= 9.99D-01 WtEn= 1.44D-03
 Coeff-Com: -0.238D-03 0.461D-02 0.243D-01-0.322D+00 0.129D+01
 Coeff-En:   0.000D+00 0.000D+00 0.000D+00 0.000D+00 0.100D+01
 Coeff:     -0.238D-03 0.461D-02 0.242D-01-0.322D+00 0.129D+01
 Gap=     0.544 Goal=   None    Shift=    0.000
 RMSDP=9.73D-06 MaxDP=2.04D-04 DE=-1.96D-05 OVMax= 6.33D-04

 Cycle   6  Pass 1  IDiag  1:
 E= -76.0539873874853     Delta-E=       -0.000001242758 Rises=F Damp=F
 DIIS: error= 2.02D-05 at cycle   6 NSaved=   6.
 NSaved= 6 IEnMin= 6 EnMin= -76.0539873874853     IErMin= 6 ErrMin= 2.02D-05
 ErrMax= 2.02D-05  0.00D+00 EMaxC= 1.00D-01 BMatC= 1.49D-08 BMatP= 5.24D-07
 IDIUse=1 WtCom= 1.00D+00 WtEn= 0.00D+00
 Coeff-Com: -0.151D-03 0.318D-03 0.247D-03 0.529D-01-0.391D+00 0.134D+01
 Coeff:     -0.151D-03 0.318D-03 0.247D-03 0.529D-01-0.391D+00 0.134D+01
 Gap=     0.544 Goal=   None    Shift=    0.000
 RMSDP=1.77D-06 MaxDP=4.31D-05 DE=-1.24D-06 OVMax= 1.17D-04

 Cycle   7  Pass 1  IDiag  1:
 E= -76.0539874264775     Delta-E=       -0.000000038992 Rises=F Damp=F
 DIIS: error= 2.90D-06 at cycle   7 NSaved=   7.
 NSaved= 7 IEnMin= 7 EnMin= -76.0539874264775     IErMin= 7 ErrMin= 2.90D-06
 ErrMax= 2.90D-06  0.00D+00 EMaxC= 1.00D-01 BMatC= 4.48D-10 BMatP= 1.49D-08
 IDIUse=1 WtCom= 1.00D+00 WtEn= 0.00D+00
 Coeff-Com:  0.272D-04-0.227D-03-0.106D-02 0.775D-02-0.590D-02-0.152D+00
 Coeff-Com:  0.115D+01
 Coeff:      0.272D-04-0.227D-03-0.106D-02 0.775D-02-0.590D-02-0.152D+00
 Coeff:      0.115D+01
 Gap=     0.544 Goal=   None    Shift=    0.000
 RMSDP=2.55D-07 MaxDP=5.22D-06 DE=-3.90D-08 OVMax= 1.61D-05

 Cycle   8  Pass 1  IDiag  1:
 E= -76.0539874274458     Delta-E=       -0.000000000968 Rises=F Damp=F
 DIIS: error= 6.61D-07 at cycle   8 NSaved=   8.
 NSaved= 8 IEnMin= 8 EnMin= -76.0539874274458     IErMin= 8 ErrMin= 6.61D-07
 ErrMax= 6.61D-07  0.00D+00 EMaxC= 1.00D-01 BMatC= 2.16D-11 BMatP= 4.48D-10
 IDIUse=1 WtCom= 1.00D+00 WtEn= 0.00D+00
 Coeff-Com:  0.463D-05 0.143D-04 0.158D-03-0.422D-02 0.230D-01-0.538D-01
 Coeff-Com: -0.174D+00 0.121D+01
 Coeff:      0.463D-05 0.143D-04 0.158D-03-0.422D-02 0.230D-01-0.538D-01
 Coeff:     -0.174D+00 0.121D+01
 Gap=     0.544 Goal=   None    Shift=    0.000
 RMSDP=7.43D-08 MaxDP=1.65D-06 DE=-9.68D-10 OVMax= 4.29D-06

 Cycle   9  Pass 1  IDiag  1:
 E= -76.0539874275000     Delta-E=       -0.000000000054 Rises=F Damp=F
 DIIS: error= 1.26D-07 at cycle   9 NSaved=   9.
 NSaved= 9 IEnMin= 9 EnMin= -76.0539874275000     IErMin= 9 ErrMin= 1.26D-07
 ErrMax= 1.26D-07  0.00D+00 EMaxC= 1.00D-01 BMatC= 4.92D-13 BMatP= 2.16D-11
 IDIUse=1 WtCom= 1.00D+00 WtEn= 0.00D+00
 Coeff-Com: -0.148D-05 0.178D-05-0.151D-04 0.740D-03-0.452D-02 0.138D-01
 Coeff-Com:  0.164D-01-0.278D+00 0.125D+01
 Coeff:     -0.148D-05 0.178D-05-0.151D-04 0.740D-03-0.452D-02 0.138D-01
 Coeff:      0.164D-01-0.278D+00 0.125D+01
 Gap=     0.544 Goal=   None    Shift=    0.000
 RMSDP=1.31D-08 MaxDP=2.98D-07 DE=-5.42D-11 OVMax= 6.09D-07

 Cycle  10  Pass 1  IDiag  1:
 E= -76.0539874275010     Delta-E=       -0.000000000001 Rises=F Damp=F
 DIIS: error= 2.62D-08 at cycle  10 NSaved=  10.
 NSaved=10 IEnMin=10 EnMin= -76.0539874275010     IErMin=10 ErrMin= 2.62D-08
 ErrMax= 2.62D-08  0.00D+00 EMaxC= 1.00D-01 BMatC= 1.93D-14 BMatP= 4.92D-13
 IDIUse=1 WtCom= 1.00D+00 WtEn= 0.00D+00
 Coeff-Com:  0.376D-06-0.100D-05 0.829D-06-0.137D-03 0.900D-03-0.315D-02
 Coeff-Com: -0.528D-03 0.578D-01-0.426D+00 0.137D+01
 Coeff:      0.376D-06-0.100D-05 0.829D-06-0.137D-03 0.900D-03-0.315D-02
 Coeff:     -0.528D-03 0.578D-01-0.426D+00 0.137D+01
 Gap=     0.544 Goal=   None    Shift=    0.000
 RMSDP=2.84D-09 MaxDP=5.65D-08 DE=-1.07D-12 OVMax= 1.42D-07

 SCF Done:  E(RHF) =  -76.0539874275     A.U. after   10 cycles
            NFock= 10  Conv=0.28D-08     -V/T= 1.9996
 KE= 7.608096539801D+01 PE=-1.995609889240D+02 EE= 3.796220310933D+01
 Leave Link  502 at Wed Feb  8 13:49:05 2023, MaxMem=   754974720 cpu:               2.3 elap:               0.6
 (Enter /opt/cluster/programs/g16-c.01/g16/l801.exe)
 Windowed orbitals will be sorted by symmetry type.
 ExpMin= 2.53D-02 ExpMax= 1.53D+04 ExpMxC= 5.22D+02 IAcc=3 IRadAn=         5 AccDes= 0.00D+00
 HarFok:  IExCor=  205 AccDes= 0.00D+00 IRadAn=         5 IDoV=-2 UseB2=F ITyADJ=14
 ICtDFT= 12500011 ScaDFX=  1.000000  1.000000  1.000000  1.000000
 Largest valence mixing into a core orbital is  1.10D-04
 Largest core mixing into a valence orbital is  1.60D-05
 Range of M.O.s used for correlation:     2    92
 NBasis=    92 NAE=     5 NBE=     5 NFC=     1 NFV=     0
 NROrb=     91 NOA=     4 NOB=     4 NVA=    87 NVB=    87

 **** Warning!!: The largest alpha MO coefficient is  0.16323347D+02

 Leave Link  801 at Wed Feb  8 13:49:05 2023, MaxMem=   754974720 cpu:               0.3 elap:               0.1
 (Enter /opt/cluster/programs/g16-c.01/g16/l804.exe)
 Closed-shell transformation, MDV=   754974720 ITran=4 ISComp=2.
 Unit  1 TFree=        277501 TCopy=        343607.
 Semi-Direct transformation.
 ModeAB=           2 MOrb=             4 LenV=     754586750
 LASXX=       736380 LTotXX=      736380 LenRXX=      736380
 LTotAB=      763744 MaxLAS=     2025660 LenRXY=     2025660
 NonZer=     2107560 LenScr=     3929600 LnRSAI=           0
 LnScr1=           0 LExtra=           0 Total=      6691640
 MaxDsk=          -1 SrtSym=           F ITran=            4
 DoSDTr:  NPSUse=  4
 JobTyp=0 Pass  1:  I=   1 to   4.
 (rs|ai) integrals will be sorted in core.
 Complete sort for first half transformation.
 First half transformation complete.
 Complete sort for second half transformation.
 Second half transformation complete.
 Spin components of T(2) and E(2):
     alpha-alpha T2 =       0.8019211095D-02 E2=     -0.3254865936D-01
     alpha-beta  T2 =       0.4632573567D-01 E2=     -0.2026342268D+00
     beta-beta   T2 =       0.8019211095D-02 E2=     -0.3254865936D-01
 ANorm=    0.1030710511D+01
 E2 =    -0.2677315455D+00 EUMP2 =    -0.76321718972994D+02
 Leave Link  804 at Wed Feb  8 13:49:06 2023, MaxMem=   754974720 cpu:               2.4 elap:               0.6
 (Enter /opt/cluster/programs/g16-c.01/g16/l913.exe)
 CIDS:  MDV=   754974720.
 Frozen-core window:  NFC=   1 NFV=   0.
 IFCWin=0 IBDFC=1 NFBD=     0     0 NFCmp=     0     0 NFFFC=     0     0
 Using DD3R+UMP44R for 1st iteration.
 Using DD4RQ for 2nd and later iterations.
 Keep R2 and R3 ints in memory in symmetry-blocked form, NReq=13979827.
 FoFCou: FMM=F IPFlag=           0 FMFlag=           0 FMFlg1=           0
         NFxFlg=           0 DoJE=F BraDBF=F KetDBF=F FulRan=T
         wScrn=  0.000000 ICntrl=       600 IOpCl=  0 I1Cent=           0 NGrid=           0
         NMat0=    1 NMatS0=   4278 NMatT0=    0 NMatD0=    1 NMtDS0=    0 NMtDT0=    0
 Petite list used in FoFCou.
 CIDS: In Core Option IDoMem=           1.
 CCSD(T)
 =======
 Iterations=  50 Convergence= 0.100D-06
 Produce multiple copies of IABC intergrals
 Iteration Nr.   1
 **********************
 DD1Dir will call FoFMem   1 times, MxPair=        20
 NAB=    10 NAA=     0 NBB=     0.
 MP4(R+Q)=  0.40269135D-02
 Maximum subspace dimension=  5
 A-vector RMS=  2.7810982D-03 Max=  1.1536377D-02 conv= 1.00D-05.
 RLE energy=       -0.2665471081
 E3=       -0.28783513D-02        EUMP3=      -0.76324597324D+02
 E4(DQ)=   -0.48519778D-03        UMP4(DQ)=   -0.76325082522D+02
 E4(SDQ)=  -0.23092082D-02        UMP4(SDQ)=  -0.76326906532D+02
 VARIATIONAL ENERGIES WITH THE FIRST-ORDER WAVEFUNCTION:
 DE(Corr)= -0.26654185     E(Corr)=     -76.320529279    
 NORM(A)=   0.10305332D+01
 Iteration Nr.   2
 **********************
 DD1Dir will call FoFMem   1 times, MxPair=        20
 NAB=    10 NAA=     0 NBB=     0.
 A-vector RMS=  2.9000862D-04 Max=  2.0729150D-03 conv= 1.00D-05.
 RLE energy=       -0.2721252440
 DE(Corr)= -0.27176186     E(CORR)=     -76.325749287     Delta=-5.22D-03
 NORM(A)=   0.10325282D+01
 Iteration Nr.   3
 **********************
 DD1Dir will call FoFMem   1 times, MxPair=        20
 NAB=    10 NAA=     0 NBB=     0.
 A-vector RMS=  3.7868512D-04 Max=  2.0803777D-03 conv= 1.00D-05.
 RLE energy=       -0.2724139673
 DE(Corr)= -0.27206372     E(CORR)=     -76.326051143     Delta=-3.02D-04
 NORM(A)=   0.10329091D+01
 Iteration Nr.   4
 **********************
 DD1Dir will call FoFMem   1 times, MxPair=        20
 NAB=    10 NAA=     0 NBB=     0.
 A-vector RMS=  5.7251661D-05 Max=  3.4303924D-04 conv= 1.00D-05.
 RLE energy=       -0.2724447552
 DE(Corr)= -0.27241908     E(CORR)=     -76.326406503     Delta=-3.55D-04
 NORM(A)=   0.10330123D+01
 Iteration Nr.   5
 **********************
 DD1Dir will call FoFMem   1 times, MxPair=        20
 NAB=    10 NAA=     0 NBB=     0.
 A-vector RMS=  2.7833617D-05 Max=  1.7888188D-04 conv= 1.00D-05.
 RLE energy=       -0.2724555871
 DE(Corr)= -0.27245083     E(CORR)=     -76.326438258     Delta=-3.18D-05
 NORM(A)=   0.10330325D+01
 Iteration Nr.   6
 **********************
 DD1Dir will call FoFMem   1 times, MxPair=        20
 NAB=    10 NAA=     0 NBB=     0.
 A-vector RMS=  6.5306304D-06 Max=  4.0004882D-05 conv= 1.00D-05.
 RLE energy=       -0.2724523615
 DE(Corr)= -0.27245316     E(CORR)=     -76.326440584     Delta=-2.33D-06
 NORM(A)=   0.10330342D+01
 Iteration Nr.   7
 **********************
 DD1Dir will call FoFMem   1 times, MxPair=        20
 NAB=    10 NAA=     0 NBB=     0.
 A-vector RMS=  2.0671439D-06 Max=  1.1011918D-05 conv= 1.00D-05.
 RLE energy=       -0.2724523444
 DE(Corr)= -0.27245314     E(CORR)=     -76.326440563     Delta= 2.06D-08
 NORM(A)=   0.10330347D+01
 Iteration Nr.   8
 **********************
 DD1Dir will call FoFMem   1 times, MxPair=        20
 NAB=    10 NAA=     0 NBB=     0.
 A-vector RMS=  8.0965201D-07 Max=  5.2953628D-06 conv= 1.00D-05.
 RLE energy=       -0.2724528363
 DE(Corr)= -0.27245292     E(CORR)=     -76.326440350     Delta= 2.13D-07
 NORM(A)=   0.10330350D+01
 Iteration Nr.   9
 **********************
 DD1Dir will call FoFMem   1 times, MxPair=        20
 NAB=    10 NAA=     0 NBB=     0.
 A-vector RMS=  1.6059280D-07 Max=  9.0940989D-07 conv= 1.00D-05.
 RLE energy=       -0.2724529164
 DE(Corr)= -0.27245293     E(CORR)=     -76.326440357     Delta=-6.33D-09
 NORM(A)=   0.10330352D+01
 CI/CC converged in    9 iterations to DelEn=-6.33D-09 Conv= 1.00D-07 ErrA1= 1.61D-07 Conv= 1.00D-05
 Wavefunction amplitudes converged. E(Corr)=     -76.326440357    
 Largest amplitude= 2.06D-02
 IPart=  2 IA=    6   11.23% done.
 IPart=  3 IA=   11   21.79% done.
 IPart=  3 IA=   16   31.68% done.
 IPart=  1 IA=   21   40.90% done.
 IPart=  1 IA=   27   51.08% done.
 IPart=  4 IA=   33   60.30% done.
 IPart=  2 IA=   41   71.10% done.
 IPart=  2 IA=   49   80.19% done.
 IPart=  1 IA=   61   90.62% done.
 Time for triples=        6.07 seconds.
 T4(CCSD)= -0.88130874D-02
 T5(CCSD)=  0.30840001D-03
 CCSD(T)= -0.76334945044D+02
 Discarding MO integrals.
 Leave Link  913 at Wed Feb  8 13:49:09 2023, MaxMem=   754974720 cpu:              11.8 elap:               3.0
 (Enter /opt/cluster/programs/g16-c.01/g16/l601.exe)
 Copying SCF densities to generalized density rwf, IOpCl= 0 IROHF=0.

 **********************************************************************

            Population analysis using the SCF Density.

 **********************************************************************

 Orbital symmetries:
       Occupied  (A') (A') (A') (A') (A")
       Virtual   (A') (A') (A') (A") (A') (A') (A') (A') (A") (A")
                 (A') (A') (A') (A') (A') (A') (A') (A") (A") (A')
                 (A") (A') (A") (A') (A") (A') (A') (A') (A') (A")
                 (A') (A") (A') (A') (A') (A") (A") (A') (A') (A')
                 (A') (A") (A") (A') (A') (A") (A') (A') (A') (A")
                 (A') (A') (A") (A') (A') (A') (A") (A") (A") (A')
                 (A') (A") (A") (A') (A') (A') (A') (A") (A') (A')
                 (A") (A') (A') (A') (A") (A') (A") (A') (A") (A")
                 (A") (A') (A') (A') (A') (A') (A')
 The electronic state is 1-A'.
 Alpha  occ. eigenvalues --  -20.56747  -1.37663  -0.70461  -0.61344  -0.51566
 Alpha virt. eigenvalues --    0.02881   0.04853   0.13391   0.15930   0.17748
 Alpha virt. eigenvalues --    0.18594   0.22611   0.24795   0.26984   0.29019
 Alpha virt. eigenvalues --    0.30483   0.37011   0.43873   0.47219   0.59375
 Alpha virt. eigenvalues --    0.67099   0.70245   0.72608   0.73247   0.84982
 Alpha virt. eigenvalues --    0.86346   0.89390   0.90230   0.91733   0.92762
 Alpha virt. eigenvalues --    0.94495   0.94963   1.02503   1.05772   1.08023
 Alpha virt. eigenvalues --    1.11204   1.19021   1.20523   1.25700   1.46024
 Alpha virt. eigenvalues --    1.52423   1.57242   1.80464   1.93033   1.98545
 Alpha virt. eigenvalues --    2.17574   2.27287   2.32395   2.33187   2.40675
 Alpha virt. eigenvalues --    2.42494   2.44552   2.53027   2.65237   2.69370
 Alpha virt. eigenvalues --    2.72861   2.85003   2.89171   3.60031   3.72568
 Alpha virt. eigenvalues --    4.05945   4.07334   4.12851   4.14736   4.37303
 Alpha virt. eigenvalues --    4.39189   4.40373   4.43398   4.61250   4.79346
 Alpha virt. eigenvalues --    4.95786   5.14428   5.19210   5.31742   5.46824
 Alpha virt. eigenvalues --    5.64336   5.65468   6.29227   6.48207   6.70867
 Alpha virt. eigenvalues --    7.11728   7.15665   7.19858   7.27345   7.31384
 Alpha virt. eigenvalues --    7.44532   7.45551   7.58921   7.76337   8.12387
 Alpha virt. eigenvalues --    9.00073  16.66839
          Condensed to atoms (all electrons):
               1          2          3
     1  O    7.867677   0.266716   0.271242
     2  H    0.266716   0.536043   0.019739
     3  H    0.271242   0.019739   0.480886
 Mulliken charges:
               1
     1  O   -0.405635
     2  H    0.177502
     3  H    0.228133
 Sum of Mulliken charges =  -0.00000
 Mulliken charges with hydrogens summed into heavy atoms:
               1
     1  O   -0.000000
 Electronic spatial extent (au):  <R**2>=             19.1421
 Charge=             -0.0000 electrons
 Dipole moment (field-independent basis, Debye):
    X=              0.0288    Y=             -2.1479    Z=              0.0000  Tot=              2.1481
 Quadrupole moment (field-independent basis, Debye-Ang):
   XX=             -4.8119   YY=             -5.8635   ZZ=             -7.4880
   XY=              0.0979   XZ=              0.0000   YZ=              0.0000
 Traceless Quadrupole moment (field-independent basis, Debye-Ang):
   XX=              1.2426   YY=              0.1910   ZZ=             -1.4336
   XY=              0.0979   XZ=              0.0000   YZ=              0.0000
 Octapole moment (field-independent basis, Debye-Ang**2):
  XXX=              0.0806  YYY=             -1.4066  ZZZ=              0.0000  XYY=             -0.0802
  XXY=             -1.2582  XXZ=              0.0000  XZZ=              0.0266  YZZ=             -0.2889
  YYZ=              0.0000  XYZ=              0.0000
 Hexadecapole moment (field-independent basis, Debye-Ang**3):
 XXXX=             -6.1218 YYYY=             -7.0541 ZZZZ=             -6.5969 XXXY=             -0.0370
 XXXZ=              0.0000 YYYX=              0.0092 YYYZ=              0.0000 ZZZX=              0.0000
 ZZZY=              0.0000 XXYY=             -1.7703 XXZZ=             -2.3204 YYZZ=             -2.3524
 XXYZ=              0.0000 YYXZ=              0.0000 ZZXY=             -0.0322
 N-N= 9.463832989138D+00 E-N=-1.995609888912D+02  KE= 7.608096539801D+01
 Symmetry A'   KE= 7.160677793782D+01
 Symmetry A"   KE= 4.474187460189D+00
 Leave Link  601 at Wed Feb  8 13:49:09 2023, MaxMem=   754974720 cpu:               0.3 elap:               0.1
 (Enter /opt/cluster/programs/g16-c.01/g16/l9999.exe)
 Unable to Open any file for archive entry.
 1\1\GINC-NODE60\SP\RCCSD(T)-FC\Aug-CC-pVTZ\H2O1\BOITTIER\08-Feb-2023\0
 \\#P CCSD(T)/aug-cc-pVTZ scf(maxcycle=200)\\Gaussian input\\0,1\O,0,0.
 ,0.11751,0.\H,0,0.7183372325,-0.4395112028,0.\H,0,-0.6195194654,-0.614
 5259499,0.\\Version=ES64L-G16RevC.01\State=1-A'\HF=-76.0539874\MP2=-76
 .321719\MP3=-76.3245973\MP4D=-76.3291094\MP4DQ=-76.3250825\MP4SDQ=-76.
 3269065\CCSD=-76.3264404\CCSD(T)=-76.334945\RMSD=2.841e-09\PG=CS [SG(H
 2O1)]\\@
 The archive entry for this job was punched.


 AND ALL THIS SCIENCE I DON'T UNDERSTAND
 IT'S JUST MY JOB FIVE DAYS A WEEK

                           -- ELTON JOHN, "ROCKET MAN"
 Job cpu time:       0 days  0 hours  0 minutes 22.3 seconds.
 Elapsed time:       0 days  0 hours  0 minutes  6.4 seconds.
 File lengths (MBytes):  RWF=     75 Int=      0 D2E=      0 Chk=      2 Scr=      1
 Normal termination of Gaussian 16 at Wed Feb  8 13:49:09 2023.
