 Entering Gaussian System, Link 0=/opt/cluster/programs/g16-c.01/g16/g16
 Input=/scratch/boittier/jobs/tmp.7261844/gaussian_166_water_ccsdt_atz.com
 Output=/scratch/boittier/jobs/tmp.7261844/gaussian_166_water_ccsdt_atz.out
 Initial command:
 /opt/cluster/programs/g16-c.01/g16/l1.exe "/scratch/boittier/jobs/tmp.7261844/Gau-103210.inp" -scrdir="/scratch/boittier/jobs/tmp.7261844/"
 Entering Link 1 = /opt/cluster/programs/g16-c.01/g16/l1.exe PID=    103211.
  
 Copyright (c) 1988-2019, Gaussian, Inc.  All Rights Reserved.
  
 This is part of the Gaussian(R) 16 program.  It is based on
 the Gaussian(R) 09 system (copyright 2009, Gaussian, Inc.),
 the Gaussian(R) 03 system (copyright 2003, Gaussian, Inc.),
 the Gaussian(R) 98 system (copyright 1998, Gaussian, Inc.),
 the Gaussian(R) 94 system (copyright 1995, Gaussian, Inc.),
 the Gaussian 92(TM) system (copyright 1992, Gaussian, Inc.),
 the Gaussian 90(TM) system (copyright 1990, Gaussian, Inc.),
 the Gaussian 88(TM) system (copyright 1988, Gaussian, Inc.),
 the Gaussian 86(TM) system (copyright 1986, Carnegie Mellon
 University), and the Gaussian 82(TM) system (copyright 1983,
 Carnegie Mellon University). Gaussian is a federally registered
 trademark of Gaussian, Inc.
  
 This software contains proprietary and confidential information,
 including trade secrets, belonging to Gaussian, Inc.
  
 This software is provided under written license and may be
 used, copied, transmitted, or stored only in accord with that
 written license.
  
 The following legend is applicable only to US Government
 contracts under FAR:
  
                    RESTRICTED RIGHTS LEGEND
  
 Use, reproduction and disclosure by the US Government is
 subject to restrictions as set forth in subparagraphs (a)
 and (c) of the Commercial Computer Software - Restricted
 Rights clause in FAR 52.227-19.
  
 Gaussian, Inc.
 340 Quinnipiac St., Bldg. 40, Wallingford CT 06492
  
  
 ---------------------------------------------------------------
 Warning -- This program may not be used in any manner that
 competes with the business of Gaussian, Inc. or will provide
 assistance to any competitor of Gaussian, Inc.  The licensee
 of this program is prohibited from giving any competitor of
 Gaussian, Inc. access to this program.  By using this program,
 the user acknowledges that Gaussian, Inc. is engaged in the
 business of creating and licensing software in the field of
 computational chemistry and represents and warrants to the
 licensee that it is not a competitor of Gaussian, Inc. and that
 it will not use this program in any manner prohibited above.
 ---------------------------------------------------------------
  

 Cite this work as:
 Gaussian 16, Revision C.01,
 M. J. Frisch, G. W. Trucks, H. B. Schlegel, G. E. Scuseria, 
 M. A. Robb, J. R. Cheeseman, G. Scalmani, V. Barone, 
 G. A. Petersson, H. Nakatsuji, X. Li, M. Caricato, A. V. Marenich, 
 J. Bloino, B. G. Janesko, R. Gomperts, B. Mennucci, H. P. Hratchian, 
 J. V. Ortiz, A. F. Izmaylov, J. L. Sonnenberg, D. Williams-Young, 
 F. Ding, F. Lipparini, F. Egidi, J. Goings, B. Peng, A. Petrone, 
 T. Henderson, D. Ranasinghe, V. G. Zakrzewski, J. Gao, N. Rega, 
 G. Zheng, W. Liang, M. Hada, M. Ehara, K. Toyota, R. Fukuda, 
 J. Hasegawa, M. Ishida, T. Nakajima, Y. Honda, O. Kitao, H. Nakai, 
 T. Vreven, K. Throssell, J. A. Montgomery, Jr., J. E. Peralta, 
 F. Ogliaro, M. J. Bearpark, J. J. Heyd, E. N. Brothers, K. N. Kudin, 
 V. N. Staroverov, T. A. Keith, R. Kobayashi, J. Normand, 
 K. Raghavachari, A. P. Rendell, J. C. Burant, S. S. Iyengar, 
 J. Tomasi, M. Cossi, J. M. Millam, M. Klene, C. Adamo, R. Cammi, 
 J. W. Ochterski, R. L. Martin, K. Morokuma, O. Farkas, 
 J. B. Foresman, and D. J. Fox, Gaussian, Inc., Wallingford CT, 2019.
 
 ******************************************
 Gaussian 16:  ES64L-G16RevC.01  3-Jul-2019
                 8-Feb-2023 
 ******************************************
 %nproc=4
 Will use up to    4 processors via shared memory.
 %mem=5760MB
 %chk=gaussian_166_water_ccsdt_atz.chk
 ----------------------------------------
 #P CCSD(T)/aug-cc-pVTZ scf(maxcycle=200)
 ----------------------------------------
 1/38=1,172=1/1;
 2/12=2,17=6,18=5,40=1/2;
 3/5=16,6=1,7=10,11=9,25=1,30=1/1,2,3;
 4//1;
 5/5=2,7=200,38=5/2;
 8/6=4,9=120000,10=1/1,4;
 9/5=7,14=2/13;
 6/7=2,8=2,9=2,10=2/1;
 99/5=1,9=1/99;
 Leave Link    1 at Wed Feb  8 13:57:25 2023, MaxMem=   754974720 cpu:               0.2 elap:               0.1
 (Enter /opt/cluster/programs/g16-c.01/g16/l101.exe)
 --------------
 Gaussian input
 --------------
 Symbolic Z-matrix:
 Charge =  0 Multiplicity = 1
 O                     0.        0.11751   0. 
 H                     0.79736  -0.50079   0. 
 H                    -0.70396  -0.60535   0. 
 
 ITRead=  0  0  0
 MicOpt= -1 -1 -1
 NAtoms=      3 NQM=        3 NQMF=       0 NMMI=      0 NMMIF=      0
                NMic=       0 NMicF=      0.
                    Isotopes and Nuclear Properties:
 (Nuclear quadrupole moments (NQMom) in fm**2, nuclear magnetic moments (NMagM)
  in nuclear magnetons)

  Atom         1           2           3
 IAtWgt=          16           1           1
 AtmWgt=  15.9949146   1.0078250   1.0078250
 NucSpn=           0           1           1
 AtZEff=  -0.0000000  -0.0000000  -0.0000000
 NQMom=    0.0000000   0.0000000   0.0000000
 NMagM=    0.0000000   2.7928460   2.7928460
 AtZNuc=   8.0000000   1.0000000   1.0000000
 Leave Link  101 at Wed Feb  8 13:57:25 2023, MaxMem=   754974720 cpu:               0.6 elap:               0.2
 (Enter /opt/cluster/programs/g16-c.01/g16/l202.exe)
                          Input orientation:                          
 ---------------------------------------------------------------------
 Center     Atomic      Atomic             Coordinates (Angstroms)
 Number     Number       Type             X           Y           Z
 ---------------------------------------------------------------------
      1          8           0        0.000000    0.117510    0.000000
      2          1           0        0.797362   -0.500790    0.000000
      3          1           0       -0.703959   -0.605348    0.000000
 ---------------------------------------------------------------------
                    Distance matrix (angstroms):
                    1          2          3
     1  O    0.000000
     2  H    1.009000   0.000000
     3  H    1.009000   1.504957   0.000000
 Stoichiometry    H2O
 Framework group  C2V[C2(O),SGV(H2)]
 Deg. of freedom     2
 Full point group                 C2V     NOp   4
 Largest Abelian subgroup         C2V     NOp   4
 Largest concise Abelian subgroup C2      NOp   2
                         Standard orientation:                         
 ---------------------------------------------------------------------
 Center     Atomic      Atomic             Coordinates (Angstroms)
 Number     Number       Type             X           Y           Z
 ---------------------------------------------------------------------
      1          8           0       -0.000000   -0.000000    0.134441
      2          1           0       -0.000000    0.752479   -0.537762
      3          1           0       -0.000000   -0.752479   -0.537762
 ---------------------------------------------------------------------
 Rotational constants (GHZ):         624.8079935         442.8061925         259.1468456
 Leave Link  202 at Wed Feb  8 13:57:25 2023, MaxMem=   754974720 cpu:               0.2 elap:               0.1
 (Enter /opt/cluster/programs/g16-c.01/g16/l301.exe)
 Standard basis: Aug-CC-pVTZ (5D, 7F)
 Ernie: Thresh=  0.10000D-02 Tol=  0.10000D-05 Strict=F.
 Ernie:  3 primitive shells out of 52 were deleted.
 There are    42 symmetry adapted cartesian basis functions of A1  symmetry.
 There are    12 symmetry adapted cartesian basis functions of A2  symmetry.
 There are    20 symmetry adapted cartesian basis functions of B1  symmetry.
 There are    31 symmetry adapted cartesian basis functions of B2  symmetry.
 There are    35 symmetry adapted basis functions of A1  symmetry.
 There are    12 symmetry adapted basis functions of A2  symmetry.
 There are    18 symmetry adapted basis functions of B1  symmetry.
 There are    27 symmetry adapted basis functions of B2  symmetry.
    92 basis functions,   126 primitive gaussians,   105 cartesian basis functions
     5 alpha electrons        5 beta electrons
       nuclear repulsion energy         8.7429362895 Hartrees.
 IExCor=    0 DFT=F Ex=HF Corr=None ExCW=0 ScaHFX=  1.000000
 ScaDFX=  1.000000  1.000000  1.000000  1.000000 ScalE2=  1.000000  1.000000
 IRadAn=      5 IRanWt=     -1 IRanGd=            0 ICorTp=0 IEmpDi=  4
 NAtoms=    3 NActive=    3 NUniq=    2 SFac= 2.25D+00 NAtFMM=   60 NAOKFM=F Big=F
 Integral buffers will be    131072 words long.
 Raffenetti 1 integral format.
 Two-electron integral symmetry is turned on.
 Leave Link  301 at Wed Feb  8 13:57:25 2023, MaxMem=   754974720 cpu:               0.2 elap:               0.0
 (Enter /opt/cluster/programs/g16-c.01/g16/l302.exe)
 NPDir=0 NMtPBC=     1 NCelOv=     1 NCel=       1 NClECP=     1 NCelD=      1
         NCelK=      1 NCelE2=     1 NClLst=     1 CellRange=     0.0.
 One-electron integrals computed using PRISM.
 One-electron integral symmetry used in STVInt
 NBasis=    92 RedAO= T EigKep=  4.45D-04  NBF=    35    12    18    27
 NBsUse=    92 1.00D-06 EigRej= -1.00D+00 NBFU=    35    12    18    27
 Leave Link  302 at Wed Feb  8 13:57:28 2023, MaxMem=   754974720 cpu:               6.0 elap:               3.0
 (Enter /opt/cluster/programs/g16-c.01/g16/l303.exe)
 DipDrv:  MaxL=1.
 Leave Link  303 at Wed Feb  8 13:57:29 2023, MaxMem=   754974720 cpu:               0.6 elap:               0.3
 (Enter /opt/cluster/programs/g16-c.01/g16/l401.exe)
 ExpMin= 2.53D-02 ExpMax= 1.53D+04 ExpMxC= 5.22D+02 IAcc=3 IRadAn=         5 AccDes= 0.00D+00
 Harris functional with IExCor=  205 and IRadAn=       5 diagonalized for initial guess.
 HarFok:  IExCor=  205 AccDes= 0.00D+00 IRadAn=         5 IDoV= 1 UseB2=F ITyADJ=14
 ICtDFT=  3500011 ScaDFX=  1.000000  1.000000  1.000000  1.000000
 FoFCou: FMM=F IPFlag=           0 FMFlag=      100000 FMFlg1=           0
         NFxFlg=           0 DoJE=T BraDBF=F KetDBF=T FulRan=T
         wScrn=  0.000000 ICntrl=       500 IOpCl=  0 I1Cent=   200000004 NGrid=           0
         NMat0=    1 NMatS0=      1 NMatT0=    0 NMatD0=    1 NMtDS0=    0 NMtDT0=    0
 Petite list used in FoFCou.
 Harris En= -76.1446730585450    
 JPrj=0 DoOrth=F DoCkMO=F.
 Initial guess orbital symmetries:
       Occupied  (A1) (A1) (B2) (A1) (B1)
       Virtual   (A1) (B2) (A1) (B1) (B2) (A1) (B2) (A1) (A2) (A1)
                 (B1) (A1) (B2) (B2) (B2) (A1) (A1) (B1) (A2) (A1)
                 (B1) (A1) (B2) (B1) (A1) (A2) (B2) (A1) (B2) (B1)
                 (B2) (A1) (A2) (B2) (A1) (A2) (B1) (A1) (B2) (B2)
                 (A1) (B1) (A2) (A1) (A1) (B1) (B2) (A1) (B2) (B1)
                 (A1) (B2) (A2) (A1) (B2) (B1) (A2) (A1) (B1) (B2)
                 (A1) (A2) (B2) (B1) (A1) (B2) (A2) (A1) (B2) (B2)
                 (B1) (A1) (A1) (B2) (B1) (A1) (B1) (B2) (B1) (A2)
                 (A2) (A1) (A1) (A1) (B2) (B2) (A1)
 The electronic state of the initial guess is 1-A1.
 Leave Link  401 at Wed Feb  8 13:57:30 2023, MaxMem=   754974720 cpu:               2.2 elap:               0.8
 (Enter /opt/cluster/programs/g16-c.01/g16/l502.exe)
 Keep R1 ints in memory in symmetry-blocked form, NReq=11496777.
 FoFCou: FMM=F IPFlag=           0 FMFlag=           0 FMFlg1=           0
         NFxFlg=           0 DoJE=F BraDBF=F KetDBF=F FulRan=T
         wScrn=  0.000000 ICntrl=       600 IOpCl=  0 I1Cent=           0 NGrid=           0
         NMat0=    1 NMatS0=   4278 NMatT0=    0 NMatD0=    1 NMtDS0=    0 NMtDT0=    0
 Petite list used in FoFCou.
 Closed shell SCF:
 Using DIIS extrapolation, IDIIS=  1040.
 NGot=   754974720 LenX=   752607631 LenY=   752596165
 Requested convergence on RMS density matrix=1.00D-08 within 200 cycles.
 Requested convergence on MAX density matrix=1.00D-06.
 Requested convergence on             energy=1.00D-06.
 No special actions if energy rises.

 Cycle   1  Pass 1  IDiag  1:
 E= -75.9663507678837    
 DIIS: error= 5.63D-02 at cycle   1 NSaved=   1.
 NSaved= 1 IEnMin= 1 EnMin= -75.9663507678837     IErMin= 1 ErrMin= 5.63D-02
 ErrMax= 5.63D-02  0.00D+00 EMaxC= 1.00D-01 BMatC= 1.92D-01 BMatP= 1.92D-01
 IDIUse=3 WtCom= 4.37D-01 WtEn= 5.63D-01
 Coeff-Com:  0.100D+01
 Coeff-En:   0.100D+01
 Coeff:      0.100D+01
 Gap=     0.456 Goal=   None    Shift=    0.000
 GapD=    0.456 DampG=2.000 DampE=0.500 DampFc=1.0000 IDamp=-1.
 RMSDP=2.10D-03 MaxDP=4.62D-02              OVMax= 1.29D-01

 Cycle   2  Pass 1  IDiag  1:
 E= -76.0123563660603     Delta-E=       -0.046005598177 Rises=F Damp=F
 DIIS: error= 4.08D-02 at cycle   2 NSaved=   2.
 NSaved= 2 IEnMin= 2 EnMin= -76.0123563660603     IErMin= 2 ErrMin= 4.08D-02
 ErrMax= 4.08D-02  0.00D+00 EMaxC= 1.00D-01 BMatC= 6.06D-02 BMatP= 1.92D-01
 IDIUse=3 WtCom= 5.92D-01 WtEn= 4.08D-01
 Coeff-Com:  0.332D+00 0.668D+00
 Coeff-En:   0.240D+00 0.760D+00
 Coeff:      0.294D+00 0.706D+00
 Gap=     0.562 Goal=   None    Shift=    0.000
 RMSDP=1.33D-03 MaxDP=3.57D-02 DE=-4.60D-02 OVMax= 6.65D-02

 Cycle   3  Pass 1  IDiag  1:
 E= -76.0491226517588     Delta-E=       -0.036766285699 Rises=F Damp=F
 DIIS: error= 7.98D-03 at cycle   3 NSaved=   3.
 NSaved= 3 IEnMin= 3 EnMin= -76.0491226517588     IErMin= 3 ErrMin= 7.98D-03
 ErrMax= 7.98D-03  0.00D+00 EMaxC= 1.00D-01 BMatC= 2.84D-03 BMatP= 6.06D-02
 IDIUse=3 WtCom= 9.20D-01 WtEn= 7.98D-02
 Coeff-Com: -0.323D-01 0.146D+00 0.886D+00
 Coeff-En:   0.000D+00 0.000D+00 0.100D+01
 Coeff:     -0.297D-01 0.135D+00 0.895D+00
 Gap=     0.534 Goal=   None    Shift=    0.000
 RMSDP=2.26D-04 MaxDP=4.20D-03 DE=-3.68D-02 OVMax= 1.38D-02

 Cycle   4  Pass 1  IDiag  1:
 E= -76.0509690524149     Delta-E=       -0.001846400656 Rises=F Damp=F
 DIIS: error= 8.44D-04 at cycle   4 NSaved=   4.
 NSaved= 4 IEnMin= 4 EnMin= -76.0509690524149     IErMin= 4 ErrMin= 8.44D-04
 ErrMax= 8.44D-04  0.00D+00 EMaxC= 1.00D-01 BMatC= 1.79D-05 BMatP= 2.84D-03
 IDIUse=3 WtCom= 9.92D-01 WtEn= 8.44D-03
 Coeff-Com:  0.762D-02-0.583D-01-0.259D+00 0.131D+01
 Coeff-En:   0.000D+00 0.000D+00 0.000D+00 0.100D+01
 Coeff:      0.755D-02-0.578D-01-0.257D+00 0.131D+01
 Gap=     0.536 Goal=   None    Shift=    0.000
 RMSDP=4.38D-05 MaxDP=8.14D-04 DE=-1.85D-03 OVMax= 2.69D-03

 Cycle   5  Pass 1  IDiag  1:
 E= -76.0510013829859     Delta-E=       -0.000032330571 Rises=F Damp=F
 DIIS: error= 2.37D-04 at cycle   5 NSaved=   5.
 NSaved= 5 IEnMin= 5 EnMin= -76.0510013829859     IErMin= 5 ErrMin= 2.37D-04
 ErrMax= 2.37D-04  0.00D+00 EMaxC= 1.00D-01 BMatC= 9.29D-07 BMatP= 1.79D-05
 IDIUse=3 WtCom= 9.98D-01 WtEn= 2.37D-03
 Coeff-Com:  0.516D-03 0.817D-03 0.511D-03-0.252D+00 0.125D+01
 Coeff-En:   0.000D+00 0.000D+00 0.000D+00 0.000D+00 0.100D+01
 Coeff:      0.515D-03 0.815D-03 0.510D-03-0.252D+00 0.125D+01
 Gap=     0.537 Goal=   None    Shift=    0.000
 RMSDP=1.27D-05 MaxDP=3.01D-04 DE=-3.23D-05 OVMax= 9.17D-04

 Cycle   6  Pass 1  IDiag  1:
 E= -76.0510037236046     Delta-E=       -0.000002340619 Rises=F Damp=F
 DIIS: error= 3.72D-05 at cycle   6 NSaved=   6.
 NSaved= 6 IEnMin= 6 EnMin= -76.0510037236046     IErMin= 6 ErrMin= 3.72D-05
 ErrMax= 3.72D-05  0.00D+00 EMaxC= 1.00D-01 BMatC= 3.05D-08 BMatP= 9.29D-07
 IDIUse=1 WtCom= 1.00D+00 WtEn= 0.00D+00
 Coeff-Com: -0.363D-03 0.183D-02 0.787D-02 0.104D-01-0.329D+00 0.131D+01
 Coeff:     -0.363D-03 0.183D-02 0.787D-02 0.104D-01-0.329D+00 0.131D+01
 Gap=     0.537 Goal=   None    Shift=    0.000
 RMSDP=2.76D-06 MaxDP=7.34D-05 DE=-2.34D-06 OVMax= 2.05D-04

 Cycle   7  Pass 1  IDiag  1:
 E= -76.0510038160846     Delta-E=       -0.000000092480 Rises=F Damp=F
 DIIS: error= 5.28D-06 at cycle   7 NSaved=   7.
 NSaved= 7 IEnMin= 7 EnMin= -76.0510038160846     IErMin= 7 ErrMin= 5.28D-06
 ErrMax= 5.28D-06  0.00D+00 EMaxC= 1.00D-01 BMatC= 1.25D-09 BMatP= 3.05D-08
 IDIUse=1 WtCom= 1.00D+00 WtEn= 0.00D+00
 Coeff-Com:  0.312D-04-0.352D-03-0.162D-02 0.154D-01-0.245D-01-0.143D+00
 Coeff-Com:  0.115D+01
 Coeff:      0.312D-04-0.352D-03-0.162D-02 0.154D-01-0.245D-01-0.143D+00
 Coeff:      0.115D+01
 Gap=     0.537 Goal=   None    Shift=    0.000
 RMSDP=3.82D-07 MaxDP=7.65D-06 DE=-9.25D-08 OVMax= 2.84D-05

 Cycle   8  Pass 1  IDiag  1:
 E= -76.0510038184565     Delta-E=       -0.000000002372 Rises=F Damp=F
 DIIS: error= 1.09D-06 at cycle   8 NSaved=   8.
 NSaved= 8 IEnMin= 8 EnMin= -76.0510038184565     IErMin= 8 ErrMin= 1.09D-06
 ErrMax= 1.09D-06  0.00D+00 EMaxC= 1.00D-01 BMatC= 5.80D-11 BMatP= 1.25D-09
 IDIUse=1 WtCom= 1.00D+00 WtEn= 0.00D+00
 Coeff-Com:  0.745D-05 0.104D-04 0.128D-03-0.459D-02 0.193D-01-0.124D-01
 Coeff-Com: -0.344D+00 0.134D+01
 Coeff:      0.745D-05 0.104D-04 0.128D-03-0.459D-02 0.193D-01-0.124D-01
 Coeff:     -0.344D+00 0.134D+01
 Gap=     0.537 Goal=   None    Shift=    0.000
 RMSDP=1.19D-07 MaxDP=2.46D-06 DE=-2.37D-09 OVMax= 7.28D-06

 Cycle   9  Pass 1  IDiag  1:
 E= -76.0510038186050     Delta-E=       -0.000000000149 Rises=F Damp=F
 DIIS: error= 2.12D-07 at cycle   9 NSaved=   9.
 NSaved= 9 IEnMin= 9 EnMin= -76.0510038186050     IErMin= 9 ErrMin= 2.12D-07
 ErrMax= 2.12D-07  0.00D+00 EMaxC= 1.00D-01 BMatC= 1.49D-12 BMatP= 5.80D-11
 IDIUse=1 WtCom= 1.00D+00 WtEn= 0.00D+00
 Coeff-Com: -0.249D-05 0.317D-05-0.168D-04 0.102D-02-0.446D-02 0.402D-02
 Coeff-Com:  0.877D-01-0.443D+00 0.135D+01
 Coeff:     -0.249D-05 0.317D-05-0.168D-04 0.102D-02-0.446D-02 0.402D-02
 Coeff:      0.877D-01-0.443D+00 0.135D+01
 Gap=     0.537 Goal=   None    Shift=    0.000
 RMSDP=2.31D-08 MaxDP=4.43D-07 DE=-1.49D-10 OVMax= 1.19D-06

 Cycle  10  Pass 1  IDiag  1:
 E= -76.0510038186090     Delta-E=       -0.000000000004 Rises=F Damp=F
 DIIS: error= 4.63D-08 at cycle  10 NSaved=  10.
 NSaved=10 IEnMin=10 EnMin= -76.0510038186090     IErMin=10 ErrMin= 4.63D-08
 ErrMax= 4.63D-08  0.00D+00 EMaxC= 1.00D-01 BMatC= 6.48D-14 BMatP= 1.49D-12
 IDIUse=1 WtCom= 1.00D+00 WtEn= 0.00D+00
 Coeff-Com:  0.767D-06-0.173D-05 0.207D-05-0.261D-03 0.117D-02-0.145D-02
 Coeff-Com: -0.211D-01 0.126D+00-0.562D+00 0.146D+01
 Coeff:      0.767D-06-0.173D-05 0.207D-05-0.261D-03 0.117D-02-0.145D-02
 Coeff:     -0.211D-01 0.126D+00-0.562D+00 0.146D+01
 Gap=     0.537 Goal=   None    Shift=    0.000
 RMSDP=6.06D-09 MaxDP=1.62D-07 DE=-3.94D-12 OVMax= 3.62D-07

 SCF Done:  E(RHF) =  -76.0510038186     A.U. after   10 cycles
            NFock= 10  Conv=0.61D-08     -V/T= 2.0035
 KE= 7.578450961263D+01 PE=-1.979954577897D+02 EE= 3.741700806901D+01
 Leave Link  502 at Wed Feb  8 13:57:31 2023, MaxMem=   754974720 cpu:               2.4 elap:               1.1
 (Enter /opt/cluster/programs/g16-c.01/g16/l801.exe)
 Windowed orbitals will be sorted by symmetry type.
 ExpMin= 2.53D-02 ExpMax= 1.53D+04 ExpMxC= 5.22D+02 IAcc=3 IRadAn=         5 AccDes= 0.00D+00
 HarFok:  IExCor=  205 AccDes= 0.00D+00 IRadAn=         5 IDoV=-2 UseB2=F ITyADJ=14
 ICtDFT= 12500011 ScaDFX=  1.000000  1.000000  1.000000  1.000000
 Largest valence mixing into a core orbital is  1.14D-04
 Largest core mixing into a valence orbital is  1.85D-05
 Range of M.O.s used for correlation:     2    92
 NBasis=    92 NAE=     5 NBE=     5 NFC=     1 NFV=     0
 NROrb=     91 NOA=     4 NOB=     4 NVA=    87 NVB=    87

 **** Warning!!: The largest alpha MO coefficient is  0.13862886D+02

 Leave Link  801 at Wed Feb  8 13:57:31 2023, MaxMem=   754974720 cpu:               0.3 elap:               0.1
 (Enter /opt/cluster/programs/g16-c.01/g16/l804.exe)
 Closed-shell transformation, MDV=   754974720 ITran=4 ISComp=2.
 Unit  1 TFree=        277513 TCopy=        242092.
 Semi-Direct transformation.
 ModeAB=           4 MOrb=             4 LenV=     754589018
 LASXX=       368428 LTotXX=      368428 LenRXX=      751146
 LTotAB=      382718 MaxLAS=     1379560 LenRXY=           0
 NonZer=     1119574 LenScr=     2357760 LnRSAI=     1379560
 LnScr1=     2758656 LExtra=           0 Total=      7247122
 MaxDsk=          -1 SrtSym=           T ITran=            4
 DoSDTr:  NPSUse=  4
 JobTyp=0 Pass  1:  I=   1 to   4.
 (rs|ai) integrals will be sorted in core.
 Complete sort for first half transformation.
 First half transformation complete.
 Complete sort for second half transformation.
 Second half transformation complete.
 Spin components of T(2) and E(2):
     alpha-alpha T2 =       0.8634799129D-02 E2=     -0.3317711649D-01
     alpha-beta  T2 =       0.5043653034D-01 E2=     -0.2070748584D+00
     beta-beta   T2 =       0.8634799129D-02 E2=     -0.3317711649D-01
 ANorm=    0.1033298664D+01
 E2 =    -0.2734290914D+00 EUMP2 =    -0.76324432909985D+02
 Leave Link  804 at Wed Feb  8 13:57:36 2023, MaxMem=   754974720 cpu:              10.6 elap:               5.3
 (Enter /opt/cluster/programs/g16-c.01/g16/l913.exe)
 CIDS:  MDV=   754974720.
 Frozen-core window:  NFC=   1 NFV=   0.
 IFCWin=0 IBDFC=1 NFBD=     0     0 NFCmp=     0     0 NFFFC=     0     0
 Using DD3R+UMP44R for 1st iteration.
 Using DD4RQ for 2nd and later iterations.
 Keep R2 and R3 ints in memory in symmetry-blocked form, NReq=11500115.
 FoFCou: FMM=F IPFlag=           0 FMFlag=           0 FMFlg1=           0
         NFxFlg=           0 DoJE=F BraDBF=F KetDBF=F FulRan=T
         wScrn=  0.000000 ICntrl=       600 IOpCl=  0 I1Cent=           0 NGrid=           0
         NMat0=    1 NMatS0=   4278 NMatT0=    0 NMatD0=    1 NMtDS0=    0 NMtDT0=    0
 Petite list used in FoFCou.
 CIDS: In Core Option IDoMem=           1.
 CCSD(T)
 =======
 Iterations=  50 Convergence= 0.100D-06
 Produce multiple copies of IABC intergrals
 Iteration Nr.   1
 **********************
 DD1Dir will call FoFMem   1 times, MxPair=        20
 NAB=    10 NAA=     0 NBB=     0.
 MP4(R+Q)=  0.43221344D-02
 Maximum subspace dimension=  5
 A-vector RMS=  3.1100559D-03 Max=  1.3565703D-02 conv= 1.00D-05.
 RLE energy=       -0.2705483769
 E3=       -0.14575381D-02        EUMP3=      -0.76325890448D+02
 E4(DQ)=   -0.96751318D-03        UMP4(DQ)=   -0.76326857961D+02
 E4(SDQ)=  -0.31662557D-02        UMP4(SDQ)=  -0.76329056704D+02
 VARIATIONAL ENERGIES WITH THE FIRST-ORDER WAVEFUNCTION:
 DE(Corr)= -0.27051771     E(Corr)=     -76.321521530    
 NORM(A)=   0.10328402D+01
 Iteration Nr.   2
 **********************
 DD1Dir will call FoFMem   1 times, MxPair=        20
 NAB=    10 NAA=     0 NBB=     0.
 A-vector RMS=  3.4811394D-04 Max=  2.4451559D-03 conv= 1.00D-05.
 RLE energy=       -0.2770677434
 DE(Corr)= -0.27664830     E(CORR)=     -76.327652119     Delta=-6.13D-03
 NORM(A)=   0.10353439D+01
 Iteration Nr.   3
 **********************
 DD1Dir will call FoFMem   1 times, MxPair=        20
 NAB=    10 NAA=     0 NBB=     0.
 A-vector RMS=  4.4768921D-04 Max=  2.5296628D-03 conv= 1.00D-05.
 RLE energy=       -0.2774481406
 DE(Corr)= -0.27699073     E(CORR)=     -76.327994548     Delta=-3.42D-04
 NORM(A)=   0.10358806D+01
 Iteration Nr.   4
 **********************
 DD1Dir will call FoFMem   1 times, MxPair=        20
 NAB=    10 NAA=     0 NBB=     0.
 A-vector RMS=  7.4625408D-05 Max=  4.2431880D-04 conv= 1.00D-05.
 RLE energy=       -0.2774915683
 DE(Corr)= -0.27745611     E(CORR)=     -76.328459932     Delta=-4.65D-04
 NORM(A)=   0.10360215D+01
 Iteration Nr.   5
 **********************
 DD1Dir will call FoFMem   1 times, MxPair=        20
 NAB=    10 NAA=     0 NBB=     0.
 A-vector RMS=  3.4592148D-05 Max=  2.1529803D-04 conv= 1.00D-05.
 RLE energy=       -0.2775075443
 DE(Corr)= -0.27750042     E(CORR)=     -76.328504235     Delta=-4.43D-05
 NORM(A)=   0.10360501D+01
 Iteration Nr.   6
 **********************
 DD1Dir will call FoFMem   1 times, MxPair=        20
 NAB=    10 NAA=     0 NBB=     0.
 A-vector RMS=  8.1569625D-06 Max=  4.5847621D-05 conv= 1.00D-05.
 RLE energy=       -0.2775030147
 DE(Corr)= -0.27750415     E(CORR)=     -76.328507971     Delta=-3.74D-06
 NORM(A)=   0.10360523D+01
 Iteration Nr.   7
 **********************
 DD1Dir will call FoFMem   1 times, MxPair=        20
 NAB=    10 NAA=     0 NBB=     0.
 A-vector RMS=  2.8214180D-06 Max=  1.3683050D-05 conv= 1.00D-05.
 RLE energy=       -0.2775031436
 DE(Corr)= -0.27750421     E(CORR)=     -76.328508026     Delta=-5.50D-08
 NORM(A)=   0.10360530D+01
 Iteration Nr.   8
 **********************
 DD1Dir will call FoFMem   1 times, MxPair=        20
 NAB=    10 NAA=     0 NBB=     0.
 A-vector RMS=  1.1067442D-06 Max=  6.0000108D-06 conv= 1.00D-05.
 RLE energy=       -0.2775037387
 DE(Corr)= -0.27750388     E(CORR)=     -76.328507697     Delta= 3.29D-07
 NORM(A)=   0.10360535D+01
 Iteration Nr.   9
 **********************
 DD1Dir will call FoFMem   1 times, MxPair=        20
 NAB=    10 NAA=     0 NBB=     0.
 A-vector RMS=  2.8015910D-07 Max=  1.4938962D-06 conv= 1.00D-05.
 RLE energy=       -0.2775038600
 DE(Corr)= -0.27750388     E(CORR)=     -76.328507703     Delta=-6.42D-09
 NORM(A)=   0.10360537D+01
 CI/CC converged in    9 iterations to DelEn=-6.42D-09 Conv= 1.00D-07 ErrA1= 2.80D-07 Conv= 1.00D-05
 Wavefunction amplitudes converged. E(Corr)=     -76.328507703    
 Largest amplitude= 2.66D-02
 IPart=  3 IA=    6   11.23% done.
 IPart=  1 IA=   11   21.79% done.
 IPart=  3 IA=   16   31.68% done.
 IPart=  2 IA=   21   40.90% done.
 IPart=  2 IA=   27   51.08% done.
 IPart=  1 IA=   33   60.30% done.
 IPart=  1 IA=   41   71.10% done.
 IPart=  2 IA=   49   80.19% done.
 IPart=  3 IA=   61   90.62% done.
 Time for triples=        7.05 seconds.
 T4(CCSD)= -0.96149960D-02
 T5(CCSD)=  0.37330568D-03
 CCSD(T)= -0.76337749394D+02
 Discarding MO integrals.
 Leave Link  913 at Wed Feb  8 13:57:39 2023, MaxMem=   754974720 cpu:              12.1 elap:               3.1
 (Enter /opt/cluster/programs/g16-c.01/g16/l601.exe)
 Copying SCF densities to generalized density rwf, IOpCl= 0 IROHF=0.

 **********************************************************************

            Population analysis using the SCF Density.

 **********************************************************************

 Orbital symmetries:
       Occupied  (A1) (A1) (B2) (A1) (B1)
       Virtual   (A1) (B2) (A1) (B1) (A1) (B2) (B2) (A1) (A2) (B1)
                 (A1) (B2) (A1) (B2) (B2) (A1) (A1) (A2) (B1) (A1)
                 (B1) (B2) (A1) (B1) (A2) (B2) (A1) (A1) (B2) (B1)
                 (B2) (A2) (A1) (B2) (A1) (A2) (B1) (A1) (B2) (B2)
                 (A1) (B1) (A2) (A1) (B1) (A1) (B2) (A1) (B2) (B1)
                 (B2) (A1) (A2) (A1) (B2) (A2) (B1) (A1) (B1) (B2)
                 (A1) (A2) (B1) (B2) (A1) (B2) (A2) (B2) (A1) (B2)
                 (B1) (A1) (A1) (B2) (B1) (A1) (B1) (B2) (A2) (B1)
                 (A2) (A1) (A1) (A1) (B2) (B2) (A1)
 The electronic state is 1-A1.
 Alpha  occ. eigenvalues --  -20.57962  -1.33391  -0.67557  -0.59047  -0.50889
 Alpha virt. eigenvalues --    0.02817   0.04799   0.13422   0.16213   0.17497
 Alpha virt. eigenvalues --    0.18487   0.21955   0.24387   0.26820   0.29011
 Alpha virt. eigenvalues --    0.30451   0.36502   0.42702   0.45420   0.59254
 Alpha virt. eigenvalues --    0.66220   0.69880   0.73036   0.73120   0.82377
 Alpha virt. eigenvalues --    0.85137   0.90088   0.90477   0.91347   0.92003
 Alpha virt. eigenvalues --    0.93207   0.94297   1.00245   1.02776   1.07163
 Alpha virt. eigenvalues --    1.09550   1.17136   1.17953   1.28144   1.47997
 Alpha virt. eigenvalues --    1.49172   1.53703   1.83822   1.83824   1.91089
 Alpha virt. eigenvalues --    2.08606   2.26100   2.30448   2.33134   2.41232
 Alpha virt. eigenvalues --    2.41628   2.44261   2.51384   2.69371   2.70255
 Alpha virt. eigenvalues --    2.74715   2.76647   2.85662   3.58925   3.60067
 Alpha virt. eigenvalues --    4.02335   4.02602   4.04420   4.16600   4.21457
 Alpha virt. eigenvalues --    4.33534   4.35204   4.37895   4.49421   4.68369
 Alpha virt. eigenvalues --    4.73644   5.00201   5.07156   5.12455   5.23356
 Alpha virt. eigenvalues --    5.40144   5.49461   6.20488   6.47772   6.68860
 Alpha virt. eigenvalues --    6.88645   7.04592   7.07564   7.20297   7.25405
 Alpha virt. eigenvalues --    7.33459   7.36674   7.39709   7.75360   7.85049
 Alpha virt. eigenvalues --    8.59665  14.35018
          Condensed to atoms (all electrons):
               1          2          3
     1  O    7.999434   0.253762   0.253762
     2  H    0.253762   0.457253   0.035506
     3  H    0.253762   0.035506   0.457253
 Mulliken charges:
               1
     1  O   -0.506958
     2  H    0.253479
     3  H    0.253479
 Sum of Mulliken charges =   0.00000
 Mulliken charges with hydrogens summed into heavy atoms:
               1
     1  O    0.000000
 Electronic spatial extent (au):  <R**2>=             20.1433
 Charge=             -0.0000 electrons
 Dipole moment (field-independent basis, Debye):
    X=             -0.0000    Y=             -0.0000    Z=             -2.1559  Tot=              2.1559
 Quadrupole moment (field-independent basis, Debye-Ang):
   XX=             -7.6621   YY=             -4.5148   ZZ=             -6.0047
   XY=              0.0000   XZ=              0.0000   YZ=              0.0000
 Traceless Quadrupole moment (field-independent basis, Debye-Ang):
   XX=             -1.6016   YY=              1.5458   ZZ=              0.0559
   XY=              0.0000   XZ=              0.0000   YZ=              0.0000
 Octapole moment (field-independent basis, Debye-Ang**2):
  XXX=              0.0000  YYY=             -0.0000  ZZZ=             -1.2816  XYY=             -0.0000
  XXY=              0.0000  XXZ=             -0.2364  XZZ=             -0.0000  YZZ=             -0.0000
  YYZ=             -1.5174  XYZ=             -0.0000
 Hexadecapole moment (field-independent basis, Debye-Ang**3):
 XXXX=             -6.8524 YYYY=             -6.5965 ZZZZ=             -7.6720 XXXY=             -0.0000
 XXXZ=             -0.0000 YYYX=             -0.0000 YYYZ=              0.0000 ZZZX=             -0.0000
 ZZZY=             -0.0000 XXYY=             -2.5469 XXZZ=             -2.5057 YYZZ=             -1.8422
 XXYZ=             -0.0000 YYXZ=              0.0000 ZZXY=              0.0000
 N-N= 8.742936289455D+00 E-N=-1.979954577795D+02  KE= 7.578450961263D+01
 Symmetry A1   KE= 6.780233949484D+01
 Symmetry A2   KE= 4.133586131223D-20
 Symmetry B1   KE= 4.485070246329D+00
 Symmetry B2   KE= 3.497099871460D+00
 Leave Link  601 at Wed Feb  8 13:57:40 2023, MaxMem=   754974720 cpu:               1.5 elap:               0.8
 (Enter /opt/cluster/programs/g16-c.01/g16/l9999.exe)
 Unable to Open any file for archive entry.
 1\1\GINC-NODE64\SP\RCCSD(T)-FC\Aug-CC-pVTZ\H2O1\BOITTIER\08-Feb-2023\0
 \\#P CCSD(T)/aug-cc-pVTZ scf(maxcycle=200)\\Gaussian input\\0,1\O,0,0.
 ,0.11751,0.\H,0,0.7973622306,-0.5007896629,0.\H,0,-0.7039585662,-0.605
 3477571,0.\\Version=ES64L-G16RevC.01\State=1-A1\HF=-76.0510038\MP2=-76
 .3244329\MP3=-76.3258904\MP4D=-76.3311801\MP4DQ=-76.326858\MP4SDQ=-76.
 3290567\CCSD=-76.3285077\CCSD(T)=-76.3377494\RMSD=6.061e-09\PG=C02V [C
 2(O1),SGV(H2)]\\@
 The archive entry for this job was punched.


 SCIENCE AT ITS BEST PROVIDES US WITH BETTER QUESTIONS, 
 NOT ABSOLUTE ANSWERS

                                    -- NORMAN COUSINS, 1976
 Job cpu time:       0 days  0 hours  0 minutes 37.3 seconds.
 Elapsed time:       0 days  0 hours  0 minutes 15.0 seconds.
 File lengths (MBytes):  RWF=     64 Int=      0 D2E=      0 Chk=      2 Scr=      1
 Normal termination of Gaussian 16 at Wed Feb  8 13:57:40 2023.
