 Entering Gaussian System, Link 0=/opt/cluster/programs/g16-c.01/g16/g16
 Input=/scratch/boittier/jobs/tmp.7465554/gaussian_110_water_pbe0_adz.com
 Output=/scratch/boittier/jobs/tmp.7465554/gaussian_110_water_pbe0_adz.out
 Initial command:
 /opt/cluster/programs/g16-c.01/g16/l1.exe "/scratch/boittier/jobs/tmp.7465554/Gau-44135.inp" -scrdir="/scratch/boittier/jobs/tmp.7465554/"
 Entering Link 1 = /opt/cluster/programs/g16-c.01/g16/l1.exe PID=     44136.
  
 Copyright (c) 1988-2019, Gaussian, Inc.  All Rights Reserved.
  
 This is part of the Gaussian(R) 16 program.  It is based on
 the Gaussian(R) 09 system (copyright 2009, Gaussian, Inc.),
 the Gaussian(R) 03 system (copyright 2003, Gaussian, Inc.),
 the Gaussian(R) 98 system (copyright 1998, Gaussian, Inc.),
 the Gaussian(R) 94 system (copyright 1995, Gaussian, Inc.),
 the Gaussian 92(TM) system (copyright 1992, Gaussian, Inc.),
 the Gaussian 90(TM) system (copyright 1990, Gaussian, Inc.),
 the Gaussian 88(TM) system (copyright 1988, Gaussian, Inc.),
 the Gaussian 86(TM) system (copyright 1986, Carnegie Mellon
 University), and the Gaussian 82(TM) system (copyright 1983,
 Carnegie Mellon University). Gaussian is a federally registered
 trademark of Gaussian, Inc.
  
 This software contains proprietary and confidential information,
 including trade secrets, belonging to Gaussian, Inc.
  
 This software is provided under written license and may be
 used, copied, transmitted, or stored only in accord with that
 written license.
  
 The following legend is applicable only to US Government
 contracts under FAR:
  
                    RESTRICTED RIGHTS LEGEND
  
 Use, reproduction and disclosure by the US Government is
 subject to restrictions as set forth in subparagraphs (a)
 and (c) of the Commercial Computer Software - Restricted
 Rights clause in FAR 52.227-19.
  
 Gaussian, Inc.
 340 Quinnipiac St., Bldg. 40, Wallingford CT 06492
  
  
 ---------------------------------------------------------------
 Warning -- This program may not be used in any manner that
 competes with the business of Gaussian, Inc. or will provide
 assistance to any competitor of Gaussian, Inc.  The licensee
 of this program is prohibited from giving any competitor of
 Gaussian, Inc. access to this program.  By using this program,
 the user acknowledges that Gaussian, Inc. is engaged in the
 business of creating and licensing software in the field of
 computational chemistry and represents and warrants to the
 licensee that it is not a competitor of Gaussian, Inc. and that
 it will not use this program in any manner prohibited above.
 ---------------------------------------------------------------
  

 Cite this work as:
 Gaussian 16, Revision C.01,
 M. J. Frisch, G. W. Trucks, H. B. Schlegel, G. E. Scuseria, 
 M. A. Robb, J. R. Cheeseman, G. Scalmani, V. Barone, 
 G. A. Petersson, H. Nakatsuji, X. Li, M. Caricato, A. V. Marenich, 
 J. Bloino, B. G. Janesko, R. Gomperts, B. Mennucci, H. P. Hratchian, 
 J. V. Ortiz, A. F. Izmaylov, J. L. Sonnenberg, D. Williams-Young, 
 F. Ding, F. Lipparini, F. Egidi, J. Goings, B. Peng, A. Petrone, 
 T. Henderson, D. Ranasinghe, V. G. Zakrzewski, J. Gao, N. Rega, 
 G. Zheng, W. Liang, M. Hada, M. Ehara, K. Toyota, R. Fukuda, 
 J. Hasegawa, M. Ishida, T. Nakajima, Y. Honda, O. Kitao, H. Nakai, 
 T. Vreven, K. Throssell, J. A. Montgomery, Jr., J. E. Peralta, 
 F. Ogliaro, M. J. Bearpark, J. J. Heyd, E. N. Brothers, K. N. Kudin, 
 V. N. Staroverov, T. A. Keith, R. Kobayashi, J. Normand, 
 K. Raghavachari, A. P. Rendell, J. C. Burant, S. S. Iyengar, 
 J. Tomasi, M. Cossi, J. M. Millam, M. Klene, C. Adamo, R. Cammi, 
 J. W. Ochterski, R. L. Martin, K. Morokuma, O. Farkas, 
 J. B. Foresman, and D. J. Fox, Gaussian, Inc., Wallingford CT, 2019.
 
 ******************************************
 Gaussian 16:  ES64L-G16RevC.01  3-Jul-2019
                29-Mar-2023 
 ******************************************
 %nproc=4
 Will use up to    4 processors via shared memory.
 %mem=5760MB
 %chk=gaussian_110_water_pbe0_adz.chk
 ----------------------------------------
 #P PBE1PBE/aug-cc-pVDZ scf(maxcycle=200)
 ----------------------------------------
 1/38=1,172=1/1;
 2/12=2,17=6,18=5,40=1/2;
 3/5=16,7=10,11=2,25=1,30=1,74=-13/1,2,3;
 4//1;
 5/5=2,7=200,38=5/2;
 6/7=2,8=2,9=2,10=2,28=1/1;
 99/5=1,9=1/99;
 Leave Link    1 at Wed Mar 29 21:52:31 2023, MaxMem=   754974720 cpu:               0.1 elap:               0.0
 (Enter /opt/cluster/programs/g16-c.01/g16/l101.exe)
 --------------
 Gaussian input
 --------------
 Symbolic Z-matrix:
 Charge =  0 Multiplicity = 1
 O                     0.        0.11751   0. 
 H                     0.75785  -0.47015   0. 
 H                    -0.79771  -0.50034   0. 
 
 ITRead=  0  0  0
 MicOpt= -1 -1 -1
 NAtoms=      3 NQM=        3 NQMF=       0 NMMI=      0 NMMIF=      0
                NMic=       0 NMicF=      0.
                    Isotopes and Nuclear Properties:
 (Nuclear quadrupole moments (NQMom) in fm**2, nuclear magnetic moments (NMagM)
  in nuclear magnetons)

  Atom         1           2           3
 IAtWgt=          16           1           1
 AtmWgt=  15.9949146   1.0078250   1.0078250
 NucSpn=           0           1           1
 AtZEff=  -0.0000000  -0.0000000  -0.0000000
 NQMom=    0.0000000   0.0000000   0.0000000
 NMagM=    0.0000000   2.7928460   2.7928460
 AtZNuc=   8.0000000   1.0000000   1.0000000
 Leave Link  101 at Wed Mar 29 21:52:31 2023, MaxMem=   754974720 cpu:               0.7 elap:               0.2
 (Enter /opt/cluster/programs/g16-c.01/g16/l202.exe)
                          Input orientation:                          
 ---------------------------------------------------------------------
 Center     Atomic      Atomic             Coordinates (Angstroms)
 Number     Number       Type             X           Y           Z
 ---------------------------------------------------------------------
      1          8           0        0.000000    0.117510    0.000000
      2          1           0        0.757850   -0.470150    0.000000
      3          1           0       -0.797710   -0.500341    0.000000
 ---------------------------------------------------------------------
                    Distance matrix (angstroms):
                    1          2          3
     1  O    0.000000
     2  H    0.959000   0.000000
     3  H    1.009000   1.555853   0.000000
 Stoichiometry    H2O
 Framework group  CS[SG(H2O)]
 Deg. of freedom     3
 Full point group                 CS      NOp   2
 Largest Abelian subgroup         CS      NOp   2
 Largest concise Abelian subgroup C1      NOp   1
                         Standard orientation:                         
 ---------------------------------------------------------------------
 Center     Atomic      Atomic             Coordinates (Angstroms)
 Number     Number       Type             X           Y           Z
 ---------------------------------------------------------------------
      1          8           0        0.000000    0.120617    0.000000
      2          1           0        0.776856   -0.441678    0.000000
      3          1           0       -0.776856   -0.523258    0.000000
 ---------------------------------------------------------------------
 Rotational constants (GHZ):         780.8033893         413.0184202         270.1292436
 Leave Link  202 at Wed Mar 29 21:52:31 2023, MaxMem=   754974720 cpu:               0.1 elap:               0.0
 (Enter /opt/cluster/programs/g16-c.01/g16/l301.exe)
 Standard basis: Aug-CC-pVDZ (5D, 7F)
 Ernie: Thresh=  0.10000D-02 Tol=  0.10000D-05 Strict=F.
 Ernie:  2 primitive shells out of 39 were deleted.
 There are    32 symmetry adapted cartesian basis functions of A'  symmetry.
 There are    11 symmetry adapted cartesian basis functions of A"  symmetry.
 There are    30 symmetry adapted basis functions of A'  symmetry.
 There are    11 symmetry adapted basis functions of A"  symmetry.
    41 basis functions,    65 primitive gaussians,    43 cartesian basis functions
     5 alpha electrons        5 beta electrons
       nuclear repulsion energy         8.9501855850 Hartrees.
 IExCor= 1009 DFT=T Ex+Corr=PBE1PBE ExCW=0 ScaHFX=  0.250000
 ScaDFX=  0.750000  0.750000  1.000000  1.000000 ScalE2=  1.000000  1.000000
 IRadAn=      5 IRanWt=     -1 IRanGd=            0 ICorTp=0 IEmpDi=  4
 NAtoms=    3 NActive=    3 NUniq=    3 SFac= 1.00D+00 NAtFMM=   60 NAOKFM=F Big=F
 Integral buffers will be    131072 words long.
 Raffenetti 2 integral format.
 Two-electron integral symmetry is turned on.
 Leave Link  301 at Wed Mar 29 21:52:31 2023, MaxMem=   754974720 cpu:               0.2 elap:               0.1
 (Enter /opt/cluster/programs/g16-c.01/g16/l302.exe)
 NPDir=0 NMtPBC=     1 NCelOv=     1 NCel=       1 NClECP=     1 NCelD=      1
         NCelK=      1 NCelE2=     1 NClLst=     1 CellRange=     0.0.
 One-electron integrals computed using PRISM.
 One-electron integral symmetry used in STVInt
 NBasis=    41 RedAO= T EigKep=  2.88D-03  NBF=    30    11
 NBsUse=    41 1.00D-06 EigRej= -1.00D+00 NBFU=    30    11
 Precomputing XC quadrature grid using
 IXCGrd= 4 IRadAn=           5 IRanWt=          -1 IRanGd=           0 AccXCQ= 0.00D+00.
 Generated NRdTot=       0 NPtTot=           0 NUsed=           0 NTot=          32
 NSgBfM=    43    43    43    43    43 MxSgAt=     3 MxSgA2=     3.
 Leave Link  302 at Wed Mar 29 21:52:32 2023, MaxMem=   754974720 cpu:               0.5 elap:               0.1
 (Enter /opt/cluster/programs/g16-c.01/g16/l303.exe)
 DipDrv:  MaxL=1.
 Leave Link  303 at Wed Mar 29 21:52:32 2023, MaxMem=   754974720 cpu:               0.3 elap:               0.1
 (Enter /opt/cluster/programs/g16-c.01/g16/l401.exe)
 ExpMin= 2.97D-02 ExpMax= 1.17D+04 ExpMxC= 4.01D+02 IAcc=3 IRadAn=         5 AccDes= 0.00D+00
 Harris functional with IExCor= 1009 and IRadAn=       5 diagonalized for initial guess.
 HarFok:  IExCor= 1009 AccDes= 0.00D+00 IRadAn=         5 IDoV= 1 UseB2=F ITyADJ=14
 ICtDFT=  3500011 ScaDFX=  1.000000  1.000000  1.000000  1.000000
 FoFCou: FMM=F IPFlag=           0 FMFlag=      100000 FMFlg1=           0
         NFxFlg=           0 DoJE=T BraDBF=F KetDBF=T FulRan=T
         wScrn=  0.000000 ICntrl=       500 IOpCl=  0 I1Cent=   200000004 NGrid=           0
         NMat0=    1 NMatS0=      1 NMatT0=    0 NMatD0=    1 NMtDS0=    0 NMtDT0=    0
 Petite list used in FoFCou.
 Harris En= -76.3955295821013    
 JPrj=0 DoOrth=F DoCkMO=F.
 Initial guess orbital symmetries:
       Occupied  (A') (A') (A') (A') (A")
       Virtual   (A') (A') (A') (A") (A') (A') (A') (A') (A") (A')
                 (A") (A') (A') (A') (A') (A') (A") (A') (A") (A')
                 (A") (A') (A') (A') (A") (A") (A') (A') (A') (A')
                 (A') (A") (A') (A") (A') (A')
 The electronic state of the initial guess is 1-A'.
 Leave Link  401 at Wed Mar 29 21:52:32 2023, MaxMem=   754974720 cpu:               0.7 elap:               0.2
 (Enter /opt/cluster/programs/g16-c.01/g16/l502.exe)
 Keep R1 ints in memory in symmetry-blocked form, NReq=3831793.
 FoFCou: FMM=F IPFlag=           0 FMFlag=           0 FMFlg1=           0
         NFxFlg=           0 DoJE=F BraDBF=F KetDBF=F FulRan=T
         wScrn=  0.000000 ICntrl=       600 IOpCl=  0 I1Cent=           0 NGrid=           0
         NMat0=    1 NMatS0=    861 NMatT0=    0 NMatD0=    1 NMtDS0=    0 NMtDT0=    0
 Petite list used in FoFCou.
 Closed shell SCF:
 Using DIIS extrapolation, IDIIS=  1040.
 NGot=   754974720 LenX=   754771907 LenY=   754769617
 Requested convergence on RMS density matrix=1.00D-08 within 200 cycles.
 Requested convergence on MAX density matrix=1.00D-06.
 Requested convergence on             energy=1.00D-06.
 No special actions if energy rises.

 Cycle   1  Pass 1  IDiag  1:
 E= -76.2925204516890    
 DIIS: error= 5.17D-02 at cycle   1 NSaved=   1.
 NSaved= 1 IEnMin= 1 EnMin= -76.2925204516890     IErMin= 1 ErrMin= 5.17D-02
 ErrMax= 5.17D-02  0.00D+00 EMaxC= 1.00D-01 BMatC= 8.44D-02 BMatP= 8.44D-02
 IDIUse=3 WtCom= 4.83D-01 WtEn= 5.17D-01
 Coeff-Com:  0.100D+01
 Coeff-En:   0.100D+01
 Coeff:      0.100D+01
 Gap=     0.175 Goal=   None    Shift=    0.000
 GapD=    0.175 DampG=1.000 DampE=0.500 DampFc=0.5000 IDamp=-1.
 Damping current iteration by 5.00D-01
 RMSDP=9.98D-03 MaxDP=1.58D-01              OVMax= 1.99D-01

 Cycle   2  Pass 1  IDiag  1:
 E= -76.3073706263206     Delta-E=       -0.014850174632 Rises=F Damp=T
 DIIS: error= 1.86D-02 at cycle   2 NSaved=   2.
 NSaved= 2 IEnMin= 2 EnMin= -76.3073706263206     IErMin= 2 ErrMin= 1.86D-02
 ErrMax= 1.86D-02  0.00D+00 EMaxC= 1.00D-01 BMatC= 9.09D-03 BMatP= 8.44D-02
 IDIUse=3 WtCom= 8.14D-01 WtEn= 1.86D-01
 Coeff-Com:  0.236D+00 0.764D+00
 Coeff-En:   0.391D+00 0.609D+00
 Coeff:      0.265D+00 0.735D+00
 Gap=     0.306 Goal=   None    Shift=    0.000
 RMSDP=1.25D-03 MaxDP=1.69D-02 DE=-1.49D-02 OVMax= 1.27D-01

 Cycle   3  Pass 1  IDiag  1:
 E= -76.3578488765662     Delta-E=       -0.050478250246 Rises=F Damp=F
 DIIS: error= 1.78D-03 at cycle   3 NSaved=   3.
 NSaved= 3 IEnMin= 3 EnMin= -76.3578488765662     IErMin= 3 ErrMin= 1.78D-03
 ErrMax= 1.78D-03  0.00D+00 EMaxC= 1.00D-01 BMatC= 1.10D-04 BMatP= 9.09D-03
 IDIUse=3 WtCom= 9.82D-01 WtEn= 1.78D-02
 Coeff-Com:  0.258D-01-0.248D-01 0.999D+00
 Coeff-En:   0.000D+00 0.000D+00 0.100D+01
 Coeff:      0.253D-01-0.243D-01 0.999D+00
 Gap=     0.316 Goal=   None    Shift=    0.000
 RMSDP=1.55D-04 MaxDP=1.91D-03 DE=-5.05D-02 OVMax= 2.30D-03

 Cycle   4  Pass 1  IDiag  1:
 E= -76.3579217723296     Delta-E=       -0.000072895763 Rises=F Damp=F
 DIIS: error= 2.65D-04 at cycle   4 NSaved=   4.
 NSaved= 4 IEnMin= 4 EnMin= -76.3579217723296     IErMin= 4 ErrMin= 2.65D-04
 ErrMax= 2.65D-04  0.00D+00 EMaxC= 1.00D-01 BMatC= 3.77D-06 BMatP= 1.10D-04
 IDIUse=3 WtCom= 9.97D-01 WtEn= 2.65D-03
 Coeff-Com:  0.532D-02-0.200D-01 0.244D+00 0.771D+00
 Coeff-En:   0.000D+00 0.000D+00 0.000D+00 0.100D+01
 Coeff:      0.530D-02-0.199D-01 0.243D+00 0.771D+00
 Gap=     0.317 Goal=   None    Shift=    0.000
 RMSDP=2.00D-05 MaxDP=2.91D-04 DE=-7.29D-05 OVMax= 4.59D-04

 Cycle   5  Pass 1  IDiag  1:
 E= -76.3579242307274     Delta-E=       -0.000002458398 Rises=F Damp=F
 DIIS: error= 1.03D-04 at cycle   5 NSaved=   5.
 NSaved= 5 IEnMin= 5 EnMin= -76.3579242307274     IErMin= 5 ErrMin= 1.03D-04
 ErrMax= 1.03D-04  0.00D+00 EMaxC= 1.00D-01 BMatC= 2.60D-07 BMatP= 3.77D-06
 IDIUse=3 WtCom= 9.99D-01 WtEn= 1.03D-03
 Coeff-Com:  0.130D-02-0.210D-02 0.351D-02 0.316D-01 0.966D+00
 Coeff-En:   0.000D+00 0.000D+00 0.000D+00 0.000D+00 0.100D+01
 Coeff:      0.130D-02-0.209D-02 0.351D-02 0.315D-01 0.966D+00
 Gap=     0.317 Goal=   None    Shift=    0.000
 RMSDP=7.08D-06 MaxDP=1.13D-04 DE=-2.46D-06 OVMax= 1.48D-04

 Cycle   6  Pass 1  IDiag  1:
 E= -76.3579244333558     Delta-E=       -0.000000202628 Rises=F Damp=F
 DIIS: error= 5.24D-06 at cycle   6 NSaved=   6.
 NSaved= 6 IEnMin= 6 EnMin= -76.3579244333558     IErMin= 6 ErrMin= 5.24D-06
 ErrMax= 5.24D-06  0.00D+00 EMaxC= 1.00D-01 BMatC= 6.20D-10 BMatP= 2.60D-07
 IDIUse=1 WtCom= 1.00D+00 WtEn= 0.00D+00
 Coeff-Com:  0.930D-04-0.141D-03-0.311D-03-0.267D-02 0.502D-01 0.953D+00
 Coeff:      0.930D-04-0.141D-03-0.311D-03-0.267D-02 0.502D-01 0.953D+00
 Gap=     0.317 Goal=   None    Shift=    0.000
 RMSDP=5.00D-07 MaxDP=6.75D-06 DE=-2.03D-07 OVMax= 9.59D-06

 Cycle   7  Pass 1  IDiag  1:
 E= -76.3579244338788     Delta-E=       -0.000000000523 Rises=F Damp=F
 DIIS: error= 7.70D-07 at cycle   7 NSaved=   7.
 NSaved= 7 IEnMin= 7 EnMin= -76.3579244338788     IErMin= 7 ErrMin= 7.70D-07
 ErrMax= 7.70D-07  0.00D+00 EMaxC= 1.00D-01 BMatC= 2.43D-11 BMatP= 6.20D-10
 IDIUse=1 WtCom= 1.00D+00 WtEn= 0.00D+00
 Coeff-Com: -0.354D-04 0.532D-04-0.198D-03-0.220D-02-0.331D-01 0.261D+00
 Coeff-Com:  0.775D+00
 Coeff:     -0.354D-04 0.532D-04-0.198D-03-0.220D-02-0.331D-01 0.261D+00
 Coeff:      0.775D+00
 Gap=     0.317 Goal=   None    Shift=    0.000
 RMSDP=9.77D-08 MaxDP=1.05D-06 DE=-5.23D-10 OVMax= 1.88D-06

 Cycle   8  Pass 1  IDiag  1:
 E= -76.3579244339009     Delta-E=       -0.000000000022 Rises=F Damp=F
 DIIS: error= 9.99D-08 at cycle   8 NSaved=   8.
 NSaved= 8 IEnMin= 8 EnMin= -76.3579244339009     IErMin= 8 ErrMin= 9.99D-08
 ErrMax= 9.99D-08  0.00D+00 EMaxC= 1.00D-01 BMatC= 3.38D-13 BMatP= 2.43D-11
 IDIUse=1 WtCom= 1.00D+00 WtEn= 0.00D+00
 Coeff-Com: -0.616D-06 0.139D-05-0.983D-05 0.146D-03 0.164D-02-0.258D-01
 Coeff-Com: -0.566D-01 0.108D+01
 Coeff:     -0.616D-06 0.139D-05-0.983D-05 0.146D-03 0.164D-02-0.258D-01
 Coeff:     -0.566D-01 0.108D+01
 Gap=     0.317 Goal=   None    Shift=    0.000
 RMSDP=1.12D-08 MaxDP=2.23D-07 DE=-2.22D-11 OVMax= 3.82D-07

 Cycle   9  Pass 1  IDiag  1:
 E= -76.3579244339013     Delta-E=       -0.000000000000 Rises=F Damp=F
 DIIS: error= 4.83D-09 at cycle   9 NSaved=   9.
 NSaved= 9 IEnMin= 9 EnMin= -76.3579244339013     IErMin= 9 ErrMin= 4.83D-09
 ErrMax= 4.83D-09  0.00D+00 EMaxC= 1.00D-01 BMatC= 4.79D-16 BMatP= 3.38D-13
 IDIUse=1 WtCom= 1.00D+00 WtEn= 0.00D+00
 Coeff-Com:  0.224D-06-0.332D-06 0.132D-05 0.498D-05 0.165D-03-0.521D-03
 Coeff-Com: -0.197D-02-0.438D-01 0.105D+01
 Coeff:      0.224D-06-0.332D-06 0.132D-05 0.498D-05 0.165D-03-0.521D-03
 Coeff:     -0.197D-02-0.438D-01 0.105D+01
 Gap=     0.317 Goal=   None    Shift=    0.000
 RMSDP=7.16D-10 MaxDP=1.23D-08 DE=-3.98D-13 OVMax= 2.01D-08

 SCF Done:  E(RPBE1PBE) =  -76.3579244339     A.U. after    9 cycles
            NFock=  9  Conv=0.72D-09     -V/T= 2.0066
 KE= 7.586014372524D+01 PE=-1.983814665116D+02 EE= 3.721321276740D+01
 Leave Link  502 at Wed Mar 29 21:52:33 2023, MaxMem=   754974720 cpu:               2.4 elap:               0.6
 (Enter /opt/cluster/programs/g16-c.01/g16/l601.exe)
 Copying SCF densities to generalized density rwf, IOpCl= 0 IROHF=0.

 **********************************************************************

            Population analysis using the SCF Density.

 **********************************************************************

 Orbital symmetries:
       Occupied  (A') (A') (A') (A') (A")
       Virtual   (A') (A') (A') (A") (A') (A') (A') (A') (A") (A')
                 (A") (A') (A') (A') (A') (A') (A") (A') (A") (A')
                 (A") (A') (A') (A') (A") (A") (A') (A') (A') (A')
                 (A') (A") (A') (A") (A') (A')
 The electronic state is 1-A'.
 Alpha  occ. eigenvalues --  -19.23426  -1.03793  -0.54205  -0.40895  -0.33112
 Alpha virt. eigenvalues --   -0.01427   0.03145   0.11089   0.13232   0.14027
 Alpha virt. eigenvalues --    0.16075   0.18827   0.23537   0.28897   0.30127
 Alpha virt. eigenvalues --    0.33067   0.44900   0.50620   0.53498   0.63623
 Alpha virt. eigenvalues --    0.74910   0.92039   0.93126   0.96227   1.07624
 Alpha virt. eigenvalues --    1.20856   1.23077   1.32792   1.73447   1.75288
 Alpha virt. eigenvalues --    1.84943   2.10036   2.11688   2.27131   2.42451
 Alpha virt. eigenvalues --    2.66895   3.30225   3.31371   3.32725   3.60780
 Alpha virt. eigenvalues --    3.86707
          Condensed to atoms (all electrons):
               1          2          3
     1  O    7.651035   0.319065   0.305667
     2  H    0.319065   0.620980  -0.052245
     3  H    0.305667  -0.052245   0.583012
 Mulliken charges:
               1
     1  O   -0.275766
     2  H    0.112201
     3  H    0.163566
 Sum of Mulliken charges =   0.00000
 Mulliken charges with hydrogens summed into heavy atoms:
               1
     1  O    0.000000
 Electronic spatial extent (au):  <R**2>=             20.2821
 Charge=              0.0000 electrons
 Dipole moment (field-independent basis, Debye):
    X=              0.0235    Y=             -1.8796    Z=              0.0000  Tot=              1.8798
 Quadrupole moment (field-independent basis, Debye-Ang):
   XX=             -4.4243   YY=             -6.4387   ZZ=             -7.8084
   XY=              0.1369   XZ=              0.0000   YZ=              0.0000
 Traceless Quadrupole moment (field-independent basis, Debye-Ang):
   XX=              1.7995   YY=             -0.2149   ZZ=             -1.5846
   XY=              0.1369   XZ=              0.0000   YZ=              0.0000
 Octapole moment (field-independent basis, Debye-Ang**2):
  XXX=              0.0703  YYY=             -0.9831  ZZZ=              0.0000  XYY=             -0.0942
  XXY=             -1.3458  XXZ=              0.0000  XZZ=              0.0292  YZZ=             -0.2174
  YYZ=              0.0000  XYZ=              0.0000
 Hexadecapole moment (field-independent basis, Debye-Ang**3):
 XXXX=             -6.8151 YYYY=             -8.2276 ZZZZ=             -7.7370 XXXY=             -0.0009
 XXXZ=              0.0000 YYYX=             -0.0050 YYYZ=              0.0000 ZZZX=              0.0000
 ZZZY=              0.0000 XXYY=             -2.1898 XXZZ=             -2.7733 YYZZ=             -2.7155
 XXYZ=              0.0000 YYXZ=              0.0000 ZZXY=             -0.0375
 N-N= 8.950185585034D+00 E-N=-1.983814663686D+02  KE= 7.586014372524D+01
 Symmetry A'   KE= 7.142003757389D+01
 Symmetry A"   KE= 4.440106151349D+00
 No NMR shielding tensors so no spin-rotation constants.
 Leave Link  601 at Wed Mar 29 21:52:33 2023, MaxMem=   754974720 cpu:               0.4 elap:               0.1
 (Enter /opt/cluster/programs/g16-c.01/g16/l9999.exe)
 Unable to Open any file for archive entry.
 1\1\GINC-NODE89\SP\RPBE1PBE\Aug-CC-pVDZ\H2O1\BOITTIER\29-Mar-2023\0\\#
 P PBE1PBE/aug-cc-pVDZ scf(maxcycle=200)\\Gaussian input\\0,1\O,0,0.,0.
 11751,0.\H,0,0.7578497316,-0.4701504329,0.\H,0,-0.7977100455,-0.500340
 8585,0.\\Version=ES64L-G16RevC.01\State=1-A'\HF=-76.3579244\RMSD=7.163
 e-10\Dipole=-0.0152123,-0.7394067,0.\Quadrupole=1.3429765,-0.1648611,-
 1.1781153,0.0521101,0.,0.\PG=CS [SG(H2O1)]\\@
 The archive entry for this job was punched.


 IMAGINATION WILL OFTEN CARRY US TO WORLDS THAT NEVER WERE.
 BUT WITHOUT IT, WE GO NOWHERE. -- CARL SAGAN (COSMOS)
 Job cpu time:       0 days  0 hours  0 minutes  5.7 seconds.
 Elapsed time:       0 days  0 hours  0 minutes  1.5 seconds.
 File lengths (MBytes):  RWF=      6 Int=      0 D2E=      0 Chk=      1 Scr=      1
 Normal termination of Gaussian 16 at Wed Mar 29 21:52:33 2023.
