 Entering Gaussian System, Link 0=/opt/cluster/programs/g16-c.01/g16/g16
 Input=/scratch/boittier/jobs/tmp.7262685/gaussian_154_water_hf_pdz.com
 Output=/scratch/boittier/jobs/tmp.7262685/gaussian_154_water_hf_pdz.out
 Initial command:
 /opt/cluster/programs/g16-c.01/g16/l1.exe "/scratch/boittier/jobs/tmp.7262685/Gau-114266.inp" -scrdir="/scratch/boittier/jobs/tmp.7262685/"
 Entering Link 1 = /opt/cluster/programs/g16-c.01/g16/l1.exe PID=    114267.
  
 Copyright (c) 1988-2019, Gaussian, Inc.  All Rights Reserved.
  
 This is part of the Gaussian(R) 16 program.  It is based on
 the Gaussian(R) 09 system (copyright 2009, Gaussian, Inc.),
 the Gaussian(R) 03 system (copyright 2003, Gaussian, Inc.),
 the Gaussian(R) 98 system (copyright 1998, Gaussian, Inc.),
 the Gaussian(R) 94 system (copyright 1995, Gaussian, Inc.),
 the Gaussian 92(TM) system (copyright 1992, Gaussian, Inc.),
 the Gaussian 90(TM) system (copyright 1990, Gaussian, Inc.),
 the Gaussian 88(TM) system (copyright 1988, Gaussian, Inc.),
 the Gaussian 86(TM) system (copyright 1986, Carnegie Mellon
 University), and the Gaussian 82(TM) system (copyright 1983,
 Carnegie Mellon University). Gaussian is a federally registered
 trademark of Gaussian, Inc.
  
 This software contains proprietary and confidential information,
 including trade secrets, belonging to Gaussian, Inc.
  
 This software is provided under written license and may be
 used, copied, transmitted, or stored only in accord with that
 written license.
  
 The following legend is applicable only to US Government
 contracts under FAR:
  
                    RESTRICTED RIGHTS LEGEND
  
 Use, reproduction and disclosure by the US Government is
 subject to restrictions as set forth in subparagraphs (a)
 and (c) of the Commercial Computer Software - Restricted
 Rights clause in FAR 52.227-19.
  
 Gaussian, Inc.
 340 Quinnipiac St., Bldg. 40, Wallingford CT 06492
  
  
 ---------------------------------------------------------------
 Warning -- This program may not be used in any manner that
 competes with the business of Gaussian, Inc. or will provide
 assistance to any competitor of Gaussian, Inc.  The licensee
 of this program is prohibited from giving any competitor of
 Gaussian, Inc. access to this program.  By using this program,
 the user acknowledges that Gaussian, Inc. is engaged in the
 business of creating and licensing software in the field of
 computational chemistry and represents and warrants to the
 licensee that it is not a competitor of Gaussian, Inc. and that
 it will not use this program in any manner prohibited above.
 ---------------------------------------------------------------
  

 Cite this work as:
 Gaussian 16, Revision C.01,
 M. J. Frisch, G. W. Trucks, H. B. Schlegel, G. E. Scuseria, 
 M. A. Robb, J. R. Cheeseman, G. Scalmani, V. Barone, 
 G. A. Petersson, H. Nakatsuji, X. Li, M. Caricato, A. V. Marenich, 
 J. Bloino, B. G. Janesko, R. Gomperts, B. Mennucci, H. P. Hratchian, 
 J. V. Ortiz, A. F. Izmaylov, J. L. Sonnenberg, D. Williams-Young, 
 F. Ding, F. Lipparini, F. Egidi, J. Goings, B. Peng, A. Petrone, 
 T. Henderson, D. Ranasinghe, V. G. Zakrzewski, J. Gao, N. Rega, 
 G. Zheng, W. Liang, M. Hada, M. Ehara, K. Toyota, R. Fukuda, 
 J. Hasegawa, M. Ishida, T. Nakajima, Y. Honda, O. Kitao, H. Nakai, 
 T. Vreven, K. Throssell, J. A. Montgomery, Jr., J. E. Peralta, 
 F. Ogliaro, M. J. Bearpark, J. J. Heyd, E. N. Brothers, K. N. Kudin, 
 V. N. Staroverov, T. A. Keith, R. Kobayashi, J. Normand, 
 K. Raghavachari, A. P. Rendell, J. C. Burant, S. S. Iyengar, 
 J. Tomasi, M. Cossi, J. M. Millam, M. Klene, C. Adamo, R. Cammi, 
 J. W. Ochterski, R. L. Martin, K. Morokuma, O. Farkas, 
 J. B. Foresman, and D. J. Fox, Gaussian, Inc., Wallingford CT, 2019.
 
 ******************************************
 Gaussian 16:  ES64L-G16RevC.01  3-Jul-2019
                 8-Feb-2023 
 ******************************************
 %nproc=4
 Will use up to    4 processors via shared memory.
 %mem=5760MB
 %chk=gaussian_154_water_hf_pdz.chk
 ------------------------------
 #P HF/6-31g* scf(maxcycle=200)
 ------------------------------
 1/38=1,172=1/1;
 2/12=2,17=6,18=5,40=1/2;
 3/5=1,6=6,7=1,11=9,25=1,30=1/1,2,3;
 4//1;
 5/5=2,7=200,38=5/2;
 6/7=2,8=2,9=2,10=2,28=1/1;
 99/5=1,9=1/99;
 Leave Link    1 at Wed Feb  8 15:07:10 2023, MaxMem=   754974720 cpu:               0.1 elap:               0.0
 (Enter /opt/cluster/programs/g16-c.01/g16/l101.exe)
 --------------
 Gaussian input
 --------------
 Symbolic Z-matrix:
 Charge =  0 Multiplicity = 1
 O                     0.        0.11751   0. 
 H                     0.79736  -0.50079   0. 
 H                    -0.83253  -0.35849   0. 
 
 ITRead=  0  0  0
 MicOpt= -1 -1 -1
 NAtoms=      3 NQM=        3 NQMF=       0 NMMI=      0 NMMIF=      0
                NMic=       0 NMicF=      0.
                    Isotopes and Nuclear Properties:
 (Nuclear quadrupole moments (NQMom) in fm**2, nuclear magnetic moments (NMagM)
  in nuclear magnetons)

  Atom         1           2           3
 IAtWgt=          16           1           1
 AtmWgt=  15.9949146   1.0078250   1.0078250
 NucSpn=           0           1           1
 AtZEff=  -0.0000000  -0.0000000  -0.0000000
 NQMom=    0.0000000   0.0000000   0.0000000
 NMagM=    0.0000000   2.7928460   2.7928460
 AtZNuc=   8.0000000   1.0000000   1.0000000
 Leave Link  101 at Wed Feb  8 15:07:10 2023, MaxMem=   754974720 cpu:               0.5 elap:               0.2
 (Enter /opt/cluster/programs/g16-c.01/g16/l202.exe)
                          Input orientation:                          
 ---------------------------------------------------------------------
 Center     Atomic      Atomic             Coordinates (Angstroms)
 Number     Number       Type             X           Y           Z
 ---------------------------------------------------------------------
      1          8           0        0.000000    0.117510    0.000000
      2          1           0        0.797362   -0.500790    0.000000
      3          1           0       -0.832529   -0.358491    0.000000
 ---------------------------------------------------------------------
                    Distance matrix (angstroms):
                    1          2          3
     1  O    0.000000
     2  H    1.009000   0.000000
     3  H    0.959000   1.636091   0.000000
 Stoichiometry    H2O
 Framework group  CS[SG(H2O)]
 Deg. of freedom     3
 Full point group                 CS      NOp   2
 Largest Abelian subgroup         CS      NOp   2
 Largest concise Abelian subgroup C1      NOp   1
                         Standard orientation:                         
 ---------------------------------------------------------------------
 Center     Atomic      Atomic             Coordinates (Angstroms)
 Number     Number       Type             X           Y           Z
 ---------------------------------------------------------------------
      1          8           0        0.000000    0.109487   -0.000000
      2          1           0        0.816810   -0.482883    0.000000
      3          1           0       -0.816810   -0.393009   -0.000000
 ---------------------------------------------------------------------
 Rotational constants (GHZ):         946.8043938         373.9258005         268.0597387
 Leave Link  202 at Wed Feb  8 15:07:10 2023, MaxMem=   754974720 cpu:               0.1 elap:               0.0
 (Enter /opt/cluster/programs/g16-c.01/g16/l301.exe)
 Standard basis: 6-31G(d) (6D, 7F)
 Ernie: Thresh=  0.10000D-02 Tol=  0.10000D-05 Strict=F.
 There are    15 symmetry adapted cartesian basis functions of A'  symmetry.
 There are     4 symmetry adapted cartesian basis functions of A"  symmetry.
 There are    15 symmetry adapted basis functions of A'  symmetry.
 There are     4 symmetry adapted basis functions of A"  symmetry.
    19 basis functions,    36 primitive gaussians,    19 cartesian basis functions
     5 alpha electrons        5 beta electrons
       nuclear repulsion energy         8.9335051484 Hartrees.
 IExCor=    0 DFT=F Ex=HF Corr=None ExCW=0 ScaHFX=  1.000000
 ScaDFX=  1.000000  1.000000  1.000000  1.000000 ScalE2=  1.000000  1.000000
 IRadAn=      5 IRanWt=     -1 IRanGd=            0 ICorTp=0 IEmpDi=  4
 NAtoms=    3 NActive=    3 NUniq=    3 SFac= 1.00D+00 NAtFMM=   60 NAOKFM=F Big=F
 Integral buffers will be    131072 words long.
 Raffenetti 1 integral format.
 Two-electron integral symmetry is turned on.
 Leave Link  301 at Wed Feb  8 15:07:10 2023, MaxMem=   754974720 cpu:               0.1 elap:               0.0
 (Enter /opt/cluster/programs/g16-c.01/g16/l302.exe)
 NPDir=0 NMtPBC=     1 NCelOv=     1 NCel=       1 NClECP=     1 NCelD=      1
         NCelK=      1 NCelE2=     1 NClLst=     1 CellRange=     0.0.
 One-electron integrals computed using PRISM.
 One-electron integral symmetry used in STVInt
 NBasis=    19 RedAO= T EigKep=  2.33D-02  NBF=    15     4
 NBsUse=    19 1.00D-06 EigRej= -1.00D+00 NBFU=    15     4
 Leave Link  302 at Wed Feb  8 15:07:11 2023, MaxMem=   754974720 cpu:               0.7 elap:               0.3
 (Enter /opt/cluster/programs/g16-c.01/g16/l303.exe)
 DipDrv:  MaxL=1.
 Leave Link  303 at Wed Feb  8 15:07:11 2023, MaxMem=   754974720 cpu:               0.1 elap:               0.0
 (Enter /opt/cluster/programs/g16-c.01/g16/l401.exe)
 ExpMin= 1.61D-01 ExpMax= 5.48D+03 ExpMxC= 8.25D+02 IAcc=3 IRadAn=         5 AccDes= 0.00D+00
 Harris functional with IExCor=  205 and IRadAn=       5 diagonalized for initial guess.
 HarFok:  IExCor=  205 AccDes= 0.00D+00 IRadAn=         5 IDoV= 1 UseB2=F ITyADJ=14
 ICtDFT=  3500011 ScaDFX=  1.000000  1.000000  1.000000  1.000000
 FoFCou: FMM=F IPFlag=           0 FMFlag=      100000 FMFlg1=           0
         NFxFlg=           0 DoJE=T BraDBF=F KetDBF=T FulRan=T
         wScrn=  0.000000 ICntrl=       500 IOpCl=  0 I1Cent=   200000004 NGrid=           0
         NMat0=    1 NMatS0=      1 NMatT0=    0 NMatD0=    1 NMtDS0=    0 NMtDT0=    0
 Petite list used in FoFCou.
 Harris En= -76.0990999309453    
 JPrj=0 DoOrth=F DoCkMO=F.
 Initial guess orbital symmetries:
       Occupied  (A') (A') (A') (A') (A")
       Virtual   (A') (A') (A') (A') (A") (A') (A') (A') (A") (A')
                 (A") (A') (A') (A')
 The electronic state of the initial guess is 1-A'.
 Leave Link  401 at Wed Feb  8 15:07:11 2023, MaxMem=   754974720 cpu:               1.0 elap:               0.5
 (Enter /opt/cluster/programs/g16-c.01/g16/l502.exe)
 Keep R1 ints in memory in symmetry-blocked form, NReq=845369.
 FoFCou: FMM=F IPFlag=           0 FMFlag=           0 FMFlg1=           0
         NFxFlg=           0 DoJE=F BraDBF=F KetDBF=F FulRan=T
         wScrn=  0.000000 ICntrl=       600 IOpCl=  0 I1Cent=           0 NGrid=           0
         NMat0=    1 NMatS0=    190 NMatT0=    0 NMatD0=    1 NMtDS0=    0 NMtDT0=    0
 Petite list used in FoFCou.
 Closed shell SCF:
 Using DIIS extrapolation, IDIIS=  1040.
 NGot=   754974720 LenX=   754962225 LenY=   754961343
 Requested convergence on RMS density matrix=1.00D-08 within 200 cycles.
 Requested convergence on MAX density matrix=1.00D-06.
 Requested convergence on             energy=1.00D-06.
 No special actions if energy rises.

 Cycle   1  Pass 1  IDiag  1:
 E= -75.9224534335670    
 DIIS: error= 7.63D-02 at cycle   1 NSaved=   1.
 NSaved= 1 IEnMin= 1 EnMin= -75.9224534335670     IErMin= 1 ErrMin= 7.63D-02
 ErrMax= 7.63D-02  0.00D+00 EMaxC= 1.00D-01 BMatC= 1.32D-01 BMatP= 1.32D-01
 IDIUse=3 WtCom= 2.37D-01 WtEn= 7.63D-01
 Coeff-Com:  0.100D+01
 Coeff-En:   0.100D+01
 Coeff:      0.100D+01
 Gap=     0.576 Goal=   None    Shift=    0.000
 GapD=    0.576 DampG=2.000 DampE=0.500 DampFc=1.0000 IDamp=-1.
 RMSDP=1.55D-02 MaxDP=1.22D-01              OVMax= 1.27D-01

 Cycle   2  Pass 1  IDiag  1:
 E= -75.9778257526509     Delta-E=       -0.055372319084 Rises=F Damp=F
 DIIS: error= 5.21D-02 at cycle   2 NSaved=   2.
 NSaved= 2 IEnMin= 2 EnMin= -75.9778257526509     IErMin= 2 ErrMin= 5.21D-02
 ErrMax= 5.21D-02  0.00D+00 EMaxC= 1.00D-01 BMatC= 4.15D-02 BMatP= 1.32D-01
 IDIUse=3 WtCom= 4.79D-01 WtEn= 5.21D-01
 Coeff-Com:  0.341D+00 0.659D+00
 Coeff-En:   0.106D+00 0.894D+00
 Coeff:      0.219D+00 0.781D+00
 Gap=     0.719 Goal=   None    Shift=    0.000
 RMSDP=7.65D-03 MaxDP=5.93D-02 DE=-5.54D-02 OVMax= 4.97D-02

 Cycle   3  Pass 1  IDiag  1:
 E= -76.0033815643282     Delta-E=       -0.025555811677 Rises=F Damp=F
 DIIS: error= 1.20D-02 at cycle   3 NSaved=   3.
 NSaved= 3 IEnMin= 3 EnMin= -76.0033815643282     IErMin= 3 ErrMin= 1.20D-02
 ErrMax= 1.20D-02  0.00D+00 EMaxC= 1.00D-01 BMatC= 2.45D-03 BMatP= 4.15D-02
 IDIUse=3 WtCom= 8.80D-01 WtEn= 1.20D-01
 Coeff-Com: -0.262D-01 0.168D+00 0.858D+00
 Coeff-En:   0.000D+00 0.000D+00 0.100D+01
 Coeff:     -0.230D-01 0.148D+00 0.875D+00
 Gap=     0.692 Goal=   None    Shift=    0.000
 RMSDP=1.56D-03 MaxDP=1.27D-02 DE=-2.56D-02 OVMax= 1.35D-02

 Cycle   4  Pass 1  IDiag  1:
 E= -76.0051704794408     Delta-E=       -0.001788915113 Rises=F Damp=F
 DIIS: error= 1.67D-03 at cycle   4 NSaved=   4.
 NSaved= 4 IEnMin= 4 EnMin= -76.0051704794408     IErMin= 4 ErrMin= 1.67D-03
 ErrMax= 1.67D-03  0.00D+00 EMaxC= 1.00D-01 BMatC= 2.71D-05 BMatP= 2.45D-03
 IDIUse=3 WtCom= 9.83D-01 WtEn= 1.67D-02
 Coeff-Com:  0.613D-02-0.799D-01-0.246D+00 0.132D+01
 Coeff-En:   0.000D+00 0.000D+00 0.000D+00 0.100D+01
 Coeff:      0.603D-02-0.785D-01-0.242D+00 0.131D+01
 Gap=     0.696 Goal=   None    Shift=    0.000
 RMSDP=2.41D-04 MaxDP=2.26D-03 DE=-1.79D-03 OVMax= 1.84D-03

 Cycle   5  Pass 1  IDiag  1:
 E= -76.0051967356693     Delta-E=       -0.000026256228 Rises=F Damp=F
 DIIS: error= 1.70D-04 at cycle   5 NSaved=   5.
 NSaved= 5 IEnMin= 5 EnMin= -76.0051967356693     IErMin= 5 ErrMin= 1.70D-04
 ErrMax= 1.70D-04  0.00D+00 EMaxC= 1.00D-01 BMatC= 2.38D-07 BMatP= 2.71D-05
 IDIUse=3 WtCom= 9.98D-01 WtEn= 1.70D-03
 Coeff-Com:  0.229D-04 0.681D-02 0.114D-01-0.224D+00 0.121D+01
 Coeff-En:   0.000D+00 0.000D+00 0.000D+00 0.000D+00 0.100D+01
 Coeff:      0.229D-04 0.680D-02 0.114D-01-0.223D+00 0.120D+01
 Gap=     0.697 Goal=   None    Shift=    0.000
 RMSDP=5.56D-05 MaxDP=3.30D-04 DE=-2.63D-05 OVMax= 5.24D-04

 Cycle   6  Pass 1  IDiag  1:
 E= -76.0051973730441     Delta-E=       -0.000000637375 Rises=F Damp=F
 DIIS: error= 2.92D-05 at cycle   6 NSaved=   6.
 NSaved= 6 IEnMin= 6 EnMin= -76.0051973730441     IErMin= 6 ErrMin= 2.92D-05
 ErrMax= 2.92D-05  0.00D+00 EMaxC= 1.00D-01 BMatC= 1.13D-08 BMatP= 2.38D-07
 IDIUse=1 WtCom= 1.00D+00 WtEn= 0.00D+00
 Coeff-Com: -0.273D-03 0.195D-02 0.854D-02-0.821D-02-0.307D+00 0.131D+01
 Coeff:     -0.273D-03 0.195D-02 0.854D-02-0.821D-02-0.307D+00 0.131D+01
 Gap=     0.697 Goal=   None    Shift=    0.000
 RMSDP=1.60D-05 MaxDP=7.76D-05 DE=-6.37D-07 OVMax= 1.47D-04

 Cycle   7  Pass 1  IDiag  1:
 E= -76.0051974070729     Delta-E=       -0.000000034029 Rises=F Damp=F
 DIIS: error= 5.14D-06 at cycle   7 NSaved=   7.
 NSaved= 7 IEnMin= 7 EnMin= -76.0051974070729     IErMin= 7 ErrMin= 5.14D-06
 ErrMax= 5.14D-06  0.00D+00 EMaxC= 1.00D-01 BMatC= 4.74D-10 BMatP= 1.13D-08
 IDIUse=1 WtCom= 1.00D+00 WtEn= 0.00D+00
 Coeff-Com:  0.117D-03-0.111D-02-0.424D-02 0.114D-01 0.106D+00-0.604D+00
 Coeff-Com:  0.149D+01
 Coeff:      0.117D-03-0.111D-02-0.424D-02 0.114D-01 0.106D+00-0.604D+00
 Coeff:      0.149D+01
 Gap=     0.697 Goal=   None    Shift=    0.000
 RMSDP=2.51D-06 MaxDP=1.90D-05 DE=-3.40D-08 OVMax= 2.36D-05

 Cycle   8  Pass 1  IDiag  1:
 E= -76.0051974083917     Delta-E=       -0.000000001319 Rises=F Damp=F
 DIIS: error= 1.00D-06 at cycle   8 NSaved=   8.
 NSaved= 8 IEnMin= 8 EnMin= -76.0051974083917     IErMin= 8 ErrMin= 1.00D-06
 ErrMax= 1.00D-06  0.00D+00 EMaxC= 1.00D-01 BMatC= 9.07D-12 BMatP= 4.74D-10
 IDIUse=1 WtCom= 1.00D+00 WtEn= 0.00D+00
 Coeff-Com: -0.918D-05 0.126D-03 0.420D-03-0.220D-02-0.332D-02 0.469D-01
 Coeff-Com: -0.238D+00 0.120D+01
 Coeff:     -0.918D-05 0.126D-03 0.420D-03-0.220D-02-0.332D-02 0.469D-01
 Coeff:     -0.238D+00 0.120D+01
 Gap=     0.697 Goal=   None    Shift=    0.000
 RMSDP=3.05D-07 MaxDP=1.75D-06 DE=-1.32D-09 OVMax= 2.79D-06

 Cycle   9  Pass 1  IDiag  1:
 E= -76.0051974084132     Delta-E=       -0.000000000022 Rises=F Damp=F
 DIIS: error= 1.13D-07 at cycle   9 NSaved=   9.
 NSaved= 9 IEnMin= 9 EnMin= -76.0051974084132     IErMin= 9 ErrMin= 1.13D-07
 ErrMax= 1.13D-07  0.00D+00 EMaxC= 1.00D-01 BMatC= 1.95D-13 BMatP= 9.07D-12
 IDIUse=1 WtCom= 1.00D+00 WtEn= 0.00D+00
 Coeff-Com: -0.145D-05 0.645D-05 0.352D-04 0.833D-04-0.198D-02 0.589D-02
 Coeff-Com:  0.805D-02-0.233D+00 0.122D+01
 Coeff:     -0.145D-05 0.645D-05 0.352D-04 0.833D-04-0.198D-02 0.589D-02
 Coeff:      0.805D-02-0.233D+00 0.122D+01
 Gap=     0.697 Goal=   None    Shift=    0.000
 RMSDP=5.60D-08 MaxDP=2.90D-07 DE=-2.15D-11 OVMax= 5.31D-07

 Cycle  10  Pass 1  IDiag  1:
 E= -76.0051974084137     Delta-E=       -0.000000000001 Rises=F Damp=F
 DIIS: error= 2.06D-08 at cycle  10 NSaved=  10.
 NSaved=10 IEnMin=10 EnMin= -76.0051974084137     IErMin=10 ErrMin= 2.06D-08
 ErrMax= 2.06D-08  0.00D+00 EMaxC= 1.00D-01 BMatC= 4.17D-15 BMatP= 1.95D-13
 IDIUse=1 WtCom= 1.00D+00 WtEn= 0.00D+00
 Coeff-Com:  0.366D-06-0.386D-05-0.139D-04 0.469D-04 0.284D-03-0.181D-02
 Coeff-Com:  0.576D-02-0.133D-01-0.115D+00 0.112D+01
 Coeff:      0.366D-06-0.386D-05-0.139D-04 0.469D-04 0.284D-03-0.181D-02
 Coeff:      0.576D-02-0.133D-01-0.115D+00 0.112D+01
 Gap=     0.697 Goal=   None    Shift=    0.000
 RMSDP=7.64D-09 MaxDP=4.46D-08 DE=-5.26D-13 OVMax= 7.08D-08

 SCF Done:  E(RHF) =  -76.0051974084     A.U. after   10 cycles
            NFock= 10  Conv=0.76D-08     -V/T= 2.0039
 KE= 7.570954454068D+01 PE=-1.983250460005D+02 EE= 3.767679890298D+01
 Leave Link  502 at Wed Feb  8 15:07:11 2023, MaxMem=   754974720 cpu:               0.4 elap:               0.1
 (Enter /opt/cluster/programs/g16-c.01/g16/l601.exe)
 Copying SCF densities to generalized density rwf, IOpCl= 0 IROHF=0.

 **********************************************************************

            Population analysis using the SCF Density.

 **********************************************************************

 Orbital symmetries:
       Occupied  (A') (A') (A') (A') (A")
       Virtual   (A') (A') (A') (A') (A') (A") (A') (A') (A") (A')
                 (A") (A') (A') (A')
 The electronic state is 1-A'.
 Alpha  occ. eigenvalues --  -20.56038  -1.32255  -0.70559  -0.54982  -0.49262
 Alpha virt. eigenvalues --    0.20406   0.29828   1.03987   1.08926   1.15601
 Alpha virt. eigenvalues --    1.17043   1.38255   1.40485   2.03446   2.04933
 Alpha virt. eigenvalues --    2.08157   2.60297   2.89917   3.97041
          Condensed to atoms (all electrons):
               1          2          3
     1  O    8.360904   0.257030   0.261398
     2  H    0.257030   0.319979  -0.014264
     3  H    0.261398  -0.014264   0.310789
 Mulliken charges:
               1
     1  O   -0.879332
     2  H    0.437255
     3  H    0.442077
 Sum of Mulliken charges =  -0.00000
 Mulliken charges with hydrogens summed into heavy atoms:
               1
     1  O   -0.000000
 Electronic spatial extent (au):  <R**2>=             19.2641
 Charge=             -0.0000 electrons
 Dipole moment (field-independent basis, Debye):
    X=             -0.0370    Y=             -2.1022    Z=              0.0000  Tot=              2.1025
 Quadrupole moment (field-independent basis, Debye-Ang):
   XX=             -3.7021   YY=             -6.1953   ZZ=             -7.2817
   XY=             -0.1636   XZ=              0.0000   YZ=             -0.0000
 Traceless Quadrupole moment (field-independent basis, Debye-Ang):
   XX=              2.0243   YY=             -0.4689   ZZ=             -1.5553
   XY=             -0.1636   XZ=              0.0000   YZ=             -0.0000
 Octapole moment (field-independent basis, Debye-Ang**2):
  XXX=             -0.0894  YYY=             -1.2694  ZZZ=              0.0000  XYY=              0.1007
  XXY=             -1.4761  XXZ=              0.0000  XZZ=             -0.0362  YZZ=             -0.3411
  YYZ=              0.0000  XYZ=             -0.0000
 Hexadecapole moment (field-independent basis, Debye-Ang**3):
 XXXX=             -5.3231 YYYY=             -6.1118 ZZZZ=             -5.2714 XXXY=             -0.0116
 XXXZ=             -0.0000 YYYX=              0.0048 YYYZ=              0.0000 ZZZX=             -0.0000
 ZZZY=              0.0000 XXYY=             -1.6409 XXZZ=             -2.1328 YYZZ=             -1.9378
 XXYZ=             -0.0000 YYXZ=             -0.0000 ZZXY=              0.0381
 N-N= 8.933505148395D+00 E-N=-1.983250459830D+02  KE= 7.570954454068D+01
 Symmetry A'   KE= 7.116025842130D+01
 Symmetry A"   KE= 4.549286119381D+00
 No NMR shielding tensors so no spin-rotation constants.
 Leave Link  601 at Wed Feb  8 15:07:12 2023, MaxMem=   754974720 cpu:               0.8 elap:               0.4
 (Enter /opt/cluster/programs/g16-c.01/g16/l9999.exe)
 Unable to Open any file for archive entry.
 1\1\GINC-NODE65\SP\RHF\6-31G(d)\H2O1\BOITTIER\08-Feb-2023\0\\#P HF/6-3
 1g* scf(maxcycle=200)\\Gaussian input\\0,1\O,0,0.,0.11751,0.\H,0,0.797
 3622306,-0.5007896629,0.\H,0,-0.8325289106,-0.3584906439,0.\\Version=E
 S64L-G16RevC.01\State=1-A'\HF=-76.0051974\RMSD=7.638e-09\Dipole=-0.041
 1004,-0.8261776,0.\Quadrupole=1.4952821,-0.3389188,-1.1563633,-0.18085
 56,0.,0.\PG=CS [SG(H2O1)]\\@
 The archive entry for this job was punched.


 IF THERE IS ONE WAY BETTER THAN ANOTHER IT IS THE WAY OF NATURE.

                          -- ARISTOTLE
 Job cpu time:       0 days  0 hours  0 minutes  4.0 seconds.
 Elapsed time:       0 days  0 hours  0 minutes  1.7 seconds.
 File lengths (MBytes):  RWF=      6 Int=      0 D2E=      0 Chk=      1 Scr=      1
 Normal termination of Gaussian 16 at Wed Feb  8 15:07:12 2023.
