 Entering Gaussian System, Link 0=/opt/cluster/programs/g16-c.01/g16/g16
 Input=/scratch/boittier/jobs/tmp.7261705/gaussian_39_water_ccsdt_atz.com
 Output=/scratch/boittier/jobs/tmp.7261705/gaussian_39_water_ccsdt_atz.out
 Initial command:
 /opt/cluster/programs/g16-c.01/g16/l1.exe "/scratch/boittier/jobs/tmp.7261705/Gau-97786.inp" -scrdir="/scratch/boittier/jobs/tmp.7261705/"
 Entering Link 1 = /opt/cluster/programs/g16-c.01/g16/l1.exe PID=     97787.
  
 Copyright (c) 1988-2019, Gaussian, Inc.  All Rights Reserved.
  
 This is part of the Gaussian(R) 16 program.  It is based on
 the Gaussian(R) 09 system (copyright 2009, Gaussian, Inc.),
 the Gaussian(R) 03 system (copyright 2003, Gaussian, Inc.),
 the Gaussian(R) 98 system (copyright 1998, Gaussian, Inc.),
 the Gaussian(R) 94 system (copyright 1995, Gaussian, Inc.),
 the Gaussian 92(TM) system (copyright 1992, Gaussian, Inc.),
 the Gaussian 90(TM) system (copyright 1990, Gaussian, Inc.),
 the Gaussian 88(TM) system (copyright 1988, Gaussian, Inc.),
 the Gaussian 86(TM) system (copyright 1986, Carnegie Mellon
 University), and the Gaussian 82(TM) system (copyright 1983,
 Carnegie Mellon University). Gaussian is a federally registered
 trademark of Gaussian, Inc.
  
 This software contains proprietary and confidential information,
 including trade secrets, belonging to Gaussian, Inc.
  
 This software is provided under written license and may be
 used, copied, transmitted, or stored only in accord with that
 written license.
  
 The following legend is applicable only to US Government
 contracts under FAR:
  
                    RESTRICTED RIGHTS LEGEND
  
 Use, reproduction and disclosure by the US Government is
 subject to restrictions as set forth in subparagraphs (a)
 and (c) of the Commercial Computer Software - Restricted
 Rights clause in FAR 52.227-19.
  
 Gaussian, Inc.
 340 Quinnipiac St., Bldg. 40, Wallingford CT 06492
  
  
 ---------------------------------------------------------------
 Warning -- This program may not be used in any manner that
 competes with the business of Gaussian, Inc. or will provide
 assistance to any competitor of Gaussian, Inc.  The licensee
 of this program is prohibited from giving any competitor of
 Gaussian, Inc. access to this program.  By using this program,
 the user acknowledges that Gaussian, Inc. is engaged in the
 business of creating and licensing software in the field of
 computational chemistry and represents and warrants to the
 licensee that it is not a competitor of Gaussian, Inc. and that
 it will not use this program in any manner prohibited above.
 ---------------------------------------------------------------
  

 Cite this work as:
 Gaussian 16, Revision C.01,
 M. J. Frisch, G. W. Trucks, H. B. Schlegel, G. E. Scuseria, 
 M. A. Robb, J. R. Cheeseman, G. Scalmani, V. Barone, 
 G. A. Petersson, H. Nakatsuji, X. Li, M. Caricato, A. V. Marenich, 
 J. Bloino, B. G. Janesko, R. Gomperts, B. Mennucci, H. P. Hratchian, 
 J. V. Ortiz, A. F. Izmaylov, J. L. Sonnenberg, D. Williams-Young, 
 F. Ding, F. Lipparini, F. Egidi, J. Goings, B. Peng, A. Petrone, 
 T. Henderson, D. Ranasinghe, V. G. Zakrzewski, J. Gao, N. Rega, 
 G. Zheng, W. Liang, M. Hada, M. Ehara, K. Toyota, R. Fukuda, 
 J. Hasegawa, M. Ishida, T. Nakajima, Y. Honda, O. Kitao, H. Nakai, 
 T. Vreven, K. Throssell, J. A. Montgomery, Jr., J. E. Peralta, 
 F. Ogliaro, M. J. Bearpark, J. J. Heyd, E. N. Brothers, K. N. Kudin, 
 V. N. Staroverov, T. A. Keith, R. Kobayashi, J. Normand, 
 K. Raghavachari, A. P. Rendell, J. C. Burant, S. S. Iyengar, 
 J. Tomasi, M. Cossi, J. M. Millam, M. Klene, C. Adamo, R. Cammi, 
 J. W. Ochterski, R. L. Martin, K. Morokuma, O. Farkas, 
 J. B. Foresman, and D. J. Fox, Gaussian, Inc., Wallingford CT, 2019.
 
 ******************************************
 Gaussian 16:  ES64L-G16RevC.01  3-Jul-2019
                 8-Feb-2023 
 ******************************************
 %nproc=4
 Will use up to    4 processors via shared memory.
 %mem=5760MB
 %chk=gaussian_39_water_ccsdt_atz.chk
 ----------------------------------------
 #P CCSD(T)/aug-cc-pVTZ scf(maxcycle=200)
 ----------------------------------------
 1/38=1,172=1/1;
 2/12=2,17=6,18=5,40=1/2;
 3/5=16,6=1,7=10,11=9,25=1,30=1/1,2,3;
 4//1;
 5/5=2,7=200,38=5/2;
 8/6=4,9=120000,10=1/1,4;
 9/5=7,14=2/13;
 6/7=2,8=2,9=2,10=2/1;
 99/5=1,9=1/99;
 Leave Link    1 at Wed Feb  8 13:49:45 2023, MaxMem=   754974720 cpu:               0.2 elap:               0.1
 (Enter /opt/cluster/programs/g16-c.01/g16/l101.exe)
 --------------
 Gaussian input
 --------------
 Symbolic Z-matrix:
 Charge =  0 Multiplicity = 1
 O                     0.        0.11751   0. 
 H                     0.71834  -0.43951   0. 
 H                    -0.90254  -0.20669   0. 
 
 ITRead=  0  0  0
 MicOpt= -1 -1 -1
 NAtoms=      3 NQM=        3 NQMF=       0 NMMI=      0 NMMIF=      0
                NMic=       0 NMicF=      0.
                    Isotopes and Nuclear Properties:
 (Nuclear quadrupole moments (NQMom) in fm**2, nuclear magnetic moments (NMagM)
  in nuclear magnetons)

  Atom         1           2           3
 IAtWgt=          16           1           1
 AtmWgt=  15.9949146   1.0078250   1.0078250
 NucSpn=           0           1           1
 AtZEff=  -0.0000000  -0.0000000  -0.0000000
 NQMom=    0.0000000   0.0000000   0.0000000
 NMagM=    0.0000000   2.7928460   2.7928460
 AtZNuc=   8.0000000   1.0000000   1.0000000
 Leave Link  101 at Wed Feb  8 13:49:45 2023, MaxMem=   754974720 cpu:               0.6 elap:               0.2
 (Enter /opt/cluster/programs/g16-c.01/g16/l202.exe)
                          Input orientation:                          
 ---------------------------------------------------------------------
 Center     Atomic      Atomic             Coordinates (Angstroms)
 Number     Number       Type             X           Y           Z
 ---------------------------------------------------------------------
      1          8           0        0.000000    0.117510    0.000000
      2          1           0        0.718337   -0.439511    0.000000
      3          1           0       -0.902538   -0.206692    0.000000
 ---------------------------------------------------------------------
                    Distance matrix (angstroms):
                    1          2          3
     1  O    0.000000
     2  H    0.909000   0.000000
     3  H    0.959000   1.637510   0.000000
 Stoichiometry    H2O
 Framework group  CS[SG(H2O)]
 Deg. of freedom     3
 Full point group                 CS      NOp   2
 Largest Abelian subgroup         CS      NOp   2
 Largest concise Abelian subgroup C1      NOp   1
                         Standard orientation:                         
 ---------------------------------------------------------------------
 Center     Atomic      Atomic             Coordinates (Angstroms)
 Number     Number       Type             X           Y           Z
 ---------------------------------------------------------------------
      1          8           0        0.000000    0.090027    0.000000
      2          1           0        0.817110   -0.308234    0.000000
      3          1           0       -0.817110   -0.411981    0.000000
 ---------------------------------------------------------------------
 Rotational constants (GHZ):        1401.0306575         373.4703144         294.8678915
 Leave Link  202 at Wed Feb  8 13:49:45 2023, MaxMem=   754974720 cpu:               0.2 elap:               0.1
 (Enter /opt/cluster/programs/g16-c.01/g16/l301.exe)
 Standard basis: Aug-CC-pVTZ (5D, 7F)
 Ernie: Thresh=  0.10000D-02 Tol=  0.10000D-05 Strict=F.
 Ernie:  3 primitive shells out of 52 were deleted.
 There are    73 symmetry adapted cartesian basis functions of A'  symmetry.
 There are    32 symmetry adapted cartesian basis functions of A"  symmetry.
 There are    62 symmetry adapted basis functions of A'  symmetry.
 There are    30 symmetry adapted basis functions of A"  symmetry.
    92 basis functions,   126 primitive gaussians,   105 cartesian basis functions
     5 alpha electrons        5 beta electrons
       nuclear repulsion energy         9.3947932390 Hartrees.
 IExCor=    0 DFT=F Ex=HF Corr=None ExCW=0 ScaHFX=  1.000000
 ScaDFX=  1.000000  1.000000  1.000000  1.000000 ScalE2=  1.000000  1.000000
 IRadAn=      5 IRanWt=     -1 IRanGd=            0 ICorTp=0 IEmpDi=  4
 NAtoms=    3 NActive=    3 NUniq=    3 SFac= 1.00D+00 NAtFMM=   60 NAOKFM=F Big=F
 Integral buffers will be    131072 words long.
 Raffenetti 1 integral format.
 Two-electron integral symmetry is turned on.
 Leave Link  301 at Wed Feb  8 13:49:45 2023, MaxMem=   754974720 cpu:               0.3 elap:               0.1
 (Enter /opt/cluster/programs/g16-c.01/g16/l302.exe)
 NPDir=0 NMtPBC=     1 NCelOv=     1 NCel=       1 NClECP=     1 NCelD=      1
         NCelK=      1 NCelE2=     1 NClLst=     1 CellRange=     0.0.
 One-electron integrals computed using PRISM.
 One-electron integral symmetry used in STVInt
 NBasis=    92 RedAO= T EigKep=  3.08D-04  NBF=    62    30
 NBsUse=    92 1.00D-06 EigRej= -1.00D+00 NBFU=    62    30
 Leave Link  302 at Wed Feb  8 13:49:47 2023, MaxMem=   754974720 cpu:               3.9 elap:               2.0
 (Enter /opt/cluster/programs/g16-c.01/g16/l303.exe)
 DipDrv:  MaxL=1.
 Leave Link  303 at Wed Feb  8 13:49:47 2023, MaxMem=   754974720 cpu:               0.2 elap:               0.1
 (Enter /opt/cluster/programs/g16-c.01/g16/l401.exe)
 ExpMin= 2.53D-02 ExpMax= 1.53D+04 ExpMxC= 5.22D+02 IAcc=3 IRadAn=         5 AccDes= 0.00D+00
 Harris functional with IExCor=  205 and IRadAn=       5 diagonalized for initial guess.
 HarFok:  IExCor=  205 AccDes= 0.00D+00 IRadAn=         5 IDoV= 1 UseB2=F ITyADJ=14
 ICtDFT=  3500011 ScaDFX=  1.000000  1.000000  1.000000  1.000000
 FoFCou: FMM=F IPFlag=           0 FMFlag=      100000 FMFlg1=           0
         NFxFlg=           0 DoJE=T BraDBF=F KetDBF=T FulRan=T
         wScrn=  0.000000 ICntrl=       500 IOpCl=  0 I1Cent=   200000004 NGrid=           0
         NMat0=    1 NMatS0=      1 NMatT0=    0 NMatD0=    1 NMtDS0=    0 NMtDT0=    0
 Petite list used in FoFCou.
 Harris En= -76.1507027304452    
 JPrj=0 DoOrth=F DoCkMO=F.
 Initial guess orbital symmetries:
       Occupied  (A') (A') (A') (A') (A")
       Virtual   (A') (A') (A') (A") (A') (A') (A') (A') (A") (A')
                 (A") (A') (A') (A') (A') (A') (A') (A") (A") (A')
                 (A') (A") (A") (A') (A") (A') (A') (A') (A') (A")
                 (A') (A') (A") (A') (A") (A') (A") (A') (A') (A')
                 (A') (A") (A') (A") (A') (A") (A') (A') (A") (A')
                 (A') (A") (A') (A') (A') (A") (A") (A') (A') (A")
                 (A') (A") (A") (A') (A') (A') (A') (A") (A') (A")
                 (A') (A') (A') (A') (A") (A') (A") (A') (A") (A")
                 (A") (A') (A') (A') (A') (A') (A')
 The electronic state of the initial guess is 1-A'.
 Leave Link  401 at Wed Feb  8 13:49:49 2023, MaxMem=   754974720 cpu:               2.7 elap:               1.3
 (Enter /opt/cluster/programs/g16-c.01/g16/l502.exe)
 Keep R1 ints in memory in symmetry-blocked form, NReq=13818732.
 FoFCou: FMM=F IPFlag=           0 FMFlag=           0 FMFlg1=           0
         NFxFlg=           0 DoJE=F BraDBF=F KetDBF=F FulRan=T
         wScrn=  0.000000 ICntrl=       600 IOpCl=  0 I1Cent=           0 NGrid=           0
         NMat0=    1 NMatS0=   4278 NMatT0=    0 NMatD0=    1 NMtDS0=    0 NMtDT0=    0
 Petite list used in FoFCou.
 Closed shell SCF:
 Using DIIS extrapolation, IDIIS=  1040.
 NGot=   754974720 LenX=   750285684 LenY=   750274218
 Requested convergence on RMS density matrix=1.00D-08 within 200 cycles.
 Requested convergence on MAX density matrix=1.00D-06.
 Requested convergence on             energy=1.00D-06.
 No special actions if energy rises.

 Cycle   1  Pass 1  IDiag  1:
 E= -75.9582822303757    
 DIIS: error= 6.74D-02 at cycle   1 NSaved=   1.
 NSaved= 1 IEnMin= 1 EnMin= -75.9582822303757     IErMin= 1 ErrMin= 6.74D-02
 ErrMax= 6.74D-02  0.00D+00 EMaxC= 1.00D-01 BMatC= 2.17D-01 BMatP= 2.17D-01
 IDIUse=3 WtCom= 3.26D-01 WtEn= 6.74D-01
 Coeff-Com:  0.100D+01
 Coeff-En:   0.100D+01
 Coeff:      0.100D+01
 Gap=     0.447 Goal=   None    Shift=    0.000
 GapD=    0.447 DampG=2.000 DampE=0.500 DampFc=1.0000 IDamp=-1.
 RMSDP=2.23D-03 MaxDP=5.13D-02              OVMax= 1.27D-01

 Cycle   2  Pass 1  IDiag  1:
 E= -76.0158468656945     Delta-E=       -0.057564635319 Rises=F Damp=F
 DIIS: error= 4.22D-02 at cycle   2 NSaved=   2.
 NSaved= 2 IEnMin= 2 EnMin= -76.0158468656945     IErMin= 2 ErrMin= 4.22D-02
 ErrMax= 4.22D-02  0.00D+00 EMaxC= 1.00D-01 BMatC= 6.19D-02 BMatP= 2.17D-01
 IDIUse=3 WtCom= 5.78D-01 WtEn= 4.22D-01
 Coeff-Com:  0.322D+00 0.678D+00
 Coeff-En:   0.185D+00 0.815D+00
 Coeff:      0.264D+00 0.736D+00
 Gap=     0.567 Goal=   None    Shift=    0.000
 RMSDP=1.29D-03 MaxDP=2.95D-02 DE=-5.76D-02 OVMax= 6.63D-02

 Cycle   3  Pass 1  IDiag  1:
 E= -76.0517042277601     Delta-E=       -0.035857362066 Rises=F Damp=F
 DIIS: error= 9.50D-03 at cycle   3 NSaved=   3.
 NSaved= 3 IEnMin= 3 EnMin= -76.0517042277601     IErMin= 3 ErrMin= 9.50D-03
 ErrMax= 9.50D-03  0.00D+00 EMaxC= 1.00D-01 BMatC= 3.18D-03 BMatP= 6.19D-02
 IDIUse=3 WtCom= 9.05D-01 WtEn= 9.50D-02
 Coeff-Com: -0.299D-01 0.154D+00 0.876D+00
 Coeff-En:   0.000D+00 0.000D+00 0.100D+01
 Coeff:     -0.270D-01 0.139D+00 0.888D+00
 Gap=     0.535 Goal=   None    Shift=    0.000
 RMSDP=2.26D-04 MaxDP=4.49D-03 DE=-3.59D-02 OVMax= 1.22D-02

 Cycle   4  Pass 1  IDiag  1:
 E= -76.0536248227495     Delta-E=       -0.001920594989 Rises=F Damp=F
 DIIS: error= 6.45D-04 at cycle   4 NSaved=   4.
 NSaved= 4 IEnMin= 4 EnMin= -76.0536248227495     IErMin= 4 ErrMin= 6.45D-04
 ErrMax= 6.45D-04  0.00D+00 EMaxC= 1.00D-01 BMatC= 1.45D-05 BMatP= 3.18D-03
 IDIUse=3 WtCom= 9.94D-01 WtEn= 6.45D-03
 Coeff-Com:  0.560D-02-0.508D-01-0.203D+00 0.125D+01
 Coeff-En:   0.000D+00 0.000D+00 0.000D+00 0.100D+01
 Coeff:      0.556D-02-0.505D-01-0.202D+00 0.125D+01
 Gap=     0.537 Goal=   None    Shift=    0.000
 RMSDP=3.48D-05 MaxDP=6.91D-04 DE=-1.92D-03 OVMax= 2.33D-03

 Cycle   5  Pass 1  IDiag  1:
 E= -76.0536463936093     Delta-E=       -0.000021570860 Rises=F Damp=F
 DIIS: error= 1.72D-04 at cycle   5 NSaved=   5.
 NSaved= 5 IEnMin= 5 EnMin= -76.0536463936093     IErMin= 5 ErrMin= 1.72D-04
 ErrMax= 1.72D-04  0.00D+00 EMaxC= 1.00D-01 BMatC= 6.52D-07 BMatP= 1.45D-05
 IDIUse=3 WtCom= 9.98D-01 WtEn= 1.72D-03
 Coeff-Com:  0.471D-03 0.152D-02-0.117D-02-0.295D+00 0.129D+01
 Coeff-En:   0.000D+00 0.000D+00 0.000D+00 0.000D+00 0.100D+01
 Coeff:      0.471D-03 0.151D-02-0.117D-02-0.295D+00 0.129D+01
 Gap=     0.538 Goal=   None    Shift=    0.000
 RMSDP=1.20D-05 MaxDP=2.29D-04 DE=-2.16D-05 OVMax= 8.74D-04

 Cycle   6  Pass 1  IDiag  1:
 E= -76.0536481056568     Delta-E=       -0.000001712048 Rises=F Damp=F
 DIIS: error= 2.64D-05 at cycle   6 NSaved=   6.
 NSaved= 6 IEnMin= 6 EnMin= -76.0536481056568     IErMin= 6 ErrMin= 2.64D-05
 ErrMax= 2.64D-05  0.00D+00 EMaxC= 1.00D-01 BMatC= 1.84D-08 BMatP= 6.52D-07
 IDIUse=1 WtCom= 1.00D+00 WtEn= 0.00D+00
 Coeff-Com: -0.266D-03 0.135D-02 0.632D-02 0.156D-01-0.291D+00 0.127D+01
 Coeff:     -0.266D-03 0.135D-02 0.632D-02 0.156D-01-0.291D+00 0.127D+01
 Gap=     0.538 Goal=   None    Shift=    0.000
 RMSDP=2.40D-06 MaxDP=5.30D-05 DE=-1.71D-06 OVMax= 1.87D-04

 Cycle   7  Pass 1  IDiag  1:
 E= -76.0536481655851     Delta-E=       -0.000000059928 Rises=F Damp=F
 DIIS: error= 5.12D-06 at cycle   7 NSaved=   7.
 NSaved= 7 IEnMin= 7 EnMin= -76.0536481655851     IErMin= 7 ErrMin= 5.12D-06
 ErrMax= 5.12D-06  0.00D+00 EMaxC= 1.00D-01 BMatC= 9.89D-10 BMatP= 1.84D-08
 IDIUse=1 WtCom= 1.00D+00 WtEn= 0.00D+00
 Coeff-Com:  0.209D-04-0.340D-03-0.123D-02 0.160D-01-0.230D-01-0.198D+00
 Coeff-Com:  0.121D+01
 Coeff:      0.209D-04-0.340D-03-0.123D-02 0.160D-01-0.230D-01-0.198D+00
 Coeff:      0.121D+01
 Gap=     0.538 Goal=   None    Shift=    0.000
 RMSDP=3.63D-07 MaxDP=9.02D-06 DE=-5.99D-08 OVMax= 3.47D-05

 Cycle   8  Pass 1  IDiag  1:
 E= -76.0536481680545     Delta-E=       -0.000000002469 Rises=F Damp=F
 DIIS: error= 1.35D-06 at cycle   8 NSaved=   8.
 NSaved= 8 IEnMin= 8 EnMin= -76.0536481680545     IErMin= 8 ErrMin= 1.35D-06
 ErrMax= 1.35D-06  0.00D+00 EMaxC= 1.00D-01 BMatC= 6.00D-11 BMatP= 9.89D-10
 IDIUse=1 WtCom= 1.00D+00 WtEn= 0.00D+00
 Coeff-Com:  0.983D-05 0.135D-04 0.139D-04-0.562D-02 0.228D-01-0.110D-01
 Coeff-Com: -0.379D+00 0.137D+01
 Coeff:      0.983D-05 0.135D-04 0.139D-04-0.562D-02 0.228D-01-0.110D-01
 Coeff:     -0.379D+00 0.137D+01
 Gap=     0.538 Goal=   None    Shift=    0.000
 RMSDP=1.12D-07 MaxDP=2.71D-06 DE=-2.47D-09 OVMax= 8.29D-06

 Cycle   9  Pass 1  IDiag  1:
 E= -76.0536481682063     Delta-E=       -0.000000000152 Rises=F Damp=F
 DIIS: error= 1.25D-07 at cycle   9 NSaved=   9.
 NSaved= 9 IEnMin= 9 EnMin= -76.0536481682063     IErMin= 9 ErrMin= 1.25D-07
 ErrMax= 1.25D-07  0.00D+00 EMaxC= 1.00D-01 BMatC= 4.81D-13 BMatP= 6.00D-11
 IDIUse=1 WtCom= 1.00D+00 WtEn= 0.00D+00
 Coeff-Com: -0.134D-05 0.448D-05 0.180D-04 0.283D-03-0.183D-02 0.467D-02
 Coeff-Com:  0.198D-01-0.158D+00 0.113D+01
 Coeff:     -0.134D-05 0.448D-05 0.180D-04 0.283D-03-0.183D-02 0.467D-02
 Coeff:      0.198D-01-0.158D+00 0.113D+01
 Gap=     0.538 Goal=   None    Shift=    0.000
 RMSDP=1.38D-08 MaxDP=3.01D-07 DE=-1.52D-10 OVMax= 6.40D-07

 Cycle  10  Pass 1  IDiag  1:
 E= -76.0536481682073     Delta-E=       -0.000000000001 Rises=F Damp=F
 DIIS: error= 2.03D-08 at cycle  10 NSaved=  10.
 NSaved=10 IEnMin=10 EnMin= -76.0536481682073     IErMin=10 ErrMin= 2.03D-08
 ErrMax= 2.03D-08  0.00D+00 EMaxC= 1.00D-01 BMatC= 1.56D-14 BMatP= 4.81D-13
 IDIUse=1 WtCom= 1.00D+00 WtEn= 0.00D+00
 Coeff-Com: -0.149D-06-0.658D-06-0.146D-05 0.117D-03-0.397D-03-0.245D-04
 Coeff-Com:  0.822D-02-0.243D-01-0.768D-01 0.109D+01
 Coeff:     -0.149D-06-0.658D-06-0.146D-05 0.117D-03-0.397D-03-0.245D-04
 Coeff:      0.822D-02-0.243D-01-0.768D-01 0.109D+01
 Gap=     0.538 Goal=   None    Shift=    0.000
 RMSDP=2.47D-09 MaxDP=6.66D-08 DE=-9.81D-13 OVMax= 8.73D-08

 SCF Done:  E(RHF) =  -76.0536481682     A.U. after   10 cycles
            NFock= 10  Conv=0.25D-08     -V/T= 2.0004
 KE= 7.602567750100D+01 PE=-1.994555261201D+02 EE= 3.798140721192D+01
 Leave Link  502 at Wed Feb  8 13:49:53 2023, MaxMem=   754974720 cpu:              11.1 elap:               4.1
 (Enter /opt/cluster/programs/g16-c.01/g16/l801.exe)
 Windowed orbitals will be sorted by symmetry type.
 ExpMin= 2.53D-02 ExpMax= 1.53D+04 ExpMxC= 5.22D+02 IAcc=3 IRadAn=         5 AccDes= 0.00D+00
 HarFok:  IExCor=  205 AccDes= 0.00D+00 IRadAn=         5 IDoV=-2 UseB2=F ITyADJ=14
 ICtDFT= 12500011 ScaDFX=  1.000000  1.000000  1.000000  1.000000
 Largest valence mixing into a core orbital is  1.08D-04
 Largest core mixing into a valence orbital is  1.65D-05
 Range of M.O.s used for correlation:     2    92
 NBasis=    92 NAE=     5 NBE=     5 NFC=     1 NFV=     0
 NROrb=     91 NOA=     4 NOB=     4 NVA=    87 NVB=    87

 **** Warning!!: The largest alpha MO coefficient is  0.16346251D+02

 Leave Link  801 at Wed Feb  8 13:49:53 2023, MaxMem=   754974720 cpu:               0.8 elap:               0.4
 (Enter /opt/cluster/programs/g16-c.01/g16/l804.exe)
 Closed-shell transformation, MDV=   754974720 ITran=4 ISComp=2.
 Unit  1 TFree=        277501 TCopy=        343607.
 Semi-Direct transformation.
 ModeAB=           2 MOrb=             4 LenV=     754586778
 LASXX=       736380 LTotXX=      736380 LenRXX=      736380
 LTotAB=      763744 MaxLAS=     2025660 LenRXY=     2025660
 NonZer=     2107560 LenScr=     3929600 LnRSAI=           0
 LnScr1=           0 LExtra=           0 Total=      6691640
 MaxDsk=          -1 SrtSym=           F ITran=            4
 DoSDTr:  NPSUse=  4
 JobTyp=0 Pass  1:  I=   1 to   4.
 (rs|ai) integrals will be sorted in core.
 Complete sort for first half transformation.
 First half transformation complete.
 Complete sort for second half transformation.
 Second half transformation complete.
 Spin components of T(2) and E(2):
     alpha-alpha T2 =       0.7906082318D-02 E2=     -0.3235842172D-01
     alpha-beta  T2 =       0.4570340741D-01 E2=     -0.2013273491D+00
     beta-beta   T2 =       0.7906082318D-02 E2=     -0.3235842172D-01
 ANorm=    0.1030298778D+01
 E2 =    -0.2660441925D+00 EUMP2 =    -0.76319692360734D+02
 Leave Link  804 at Wed Feb  8 13:50:00 2023, MaxMem=   754974720 cpu:              14.0 elap:               7.0
 (Enter /opt/cluster/programs/g16-c.01/g16/l913.exe)
 CIDS:  MDV=   754974720.
 Frozen-core window:  NFC=   1 NFV=   0.
 IFCWin=0 IBDFC=1 NFBD=     0     0 NFCmp=     0     0 NFFFC=     0     0
 Using DD3R+UMP44R for 1st iteration.
 Using DD4RQ for 2nd and later iterations.
 Keep R2 and R3 ints in memory in symmetry-blocked form, NReq=13979827.
 FoFCou: FMM=F IPFlag=           0 FMFlag=           0 FMFlg1=           0
         NFxFlg=           0 DoJE=F BraDBF=F KetDBF=F FulRan=T
         wScrn=  0.000000 ICntrl=       600 IOpCl=  0 I1Cent=           0 NGrid=           0
         NMat0=    1 NMatS0=   4278 NMatT0=    0 NMatD0=    1 NMtDS0=    0 NMtDT0=    0
 Petite list used in FoFCou.
 CIDS: In Core Option IDoMem=           1.
 CCSD(T)
 =======
 Iterations=  50 Convergence= 0.100D-06
 Produce multiple copies of IABC intergrals
 Iteration Nr.   1
 **********************
 DD1Dir will call FoFMem   1 times, MxPair=        20
 NAB=    10 NAA=     0 NBB=     0.
 MP4(R+Q)=  0.39286267D-02
 Maximum subspace dimension=  5
 A-vector RMS=  2.7300920D-03 Max=  1.1557581D-02 conv= 1.00D-05.
 RLE energy=       -0.2652085962
 E3=       -0.31302421D-02        EUMP3=      -0.76322822603D+02
 E4(DQ)=   -0.46045572D-03        UMP4(DQ)=   -0.76323283059D+02
 E4(SDQ)=  -0.21819486D-02        UMP4(SDQ)=  -0.76325004551D+02
 VARIATIONAL ENERGIES WITH THE FIRST-ORDER WAVEFUNCTION:
 DE(Corr)= -0.26520597     E(Corr)=     -76.318854138    
 NORM(A)=   0.10302080D+01
 Iteration Nr.   2
 **********************
 DD1Dir will call FoFMem   1 times, MxPair=        20
 NAB=    10 NAA=     0 NBB=     0.
 A-vector RMS=  2.8863485D-04 Max=  2.0708529D-03 conv= 1.00D-05.
 RLE energy=       -0.2705918695
 DE(Corr)= -0.27023119     E(CORR)=     -76.323879359     Delta=-5.03D-03
 NORM(A)=   0.10321300D+01
 Iteration Nr.   3
 **********************
 DD1Dir will call FoFMem   1 times, MxPair=        20
 NAB=    10 NAA=     0 NBB=     0.
 A-vector RMS=  3.7760499D-04 Max=  2.1218798D-03 conv= 1.00D-05.
 RLE energy=       -0.2708687727
 DE(Corr)= -0.27053645     E(CORR)=     -76.324184617     Delta=-3.05D-04
 NORM(A)=   0.10324858D+01
 Iteration Nr.   4
 **********************
 DD1Dir will call FoFMem   1 times, MxPair=        20
 NAB=    10 NAA=     0 NBB=     0.
 A-vector RMS=  5.4556432D-05 Max=  3.5752374D-04 conv= 1.00D-05.
 RLE energy=       -0.2708963049
 DE(Corr)= -0.27087205     E(CORR)=     -76.324520220     Delta=-3.36D-04
 NORM(A)=   0.10325831D+01
 Iteration Nr.   5
 **********************
 DD1Dir will call FoFMem   1 times, MxPair=        20
 NAB=    10 NAA=     0 NBB=     0.
 A-vector RMS=  2.7685479D-05 Max=  1.8017020D-04 conv= 1.00D-05.
 RLE energy=       -0.2709064344
 DE(Corr)= -0.27090202     E(CORR)=     -76.324550189     Delta=-3.00D-05
 NORM(A)=   0.10326025D+01
 Iteration Nr.   6
 **********************
 DD1Dir will call FoFMem   1 times, MxPair=        20
 NAB=    10 NAA=     0 NBB=     0.
 A-vector RMS=  6.3334225D-06 Max=  3.6956363D-05 conv= 1.00D-05.
 RLE energy=       -0.2709034726
 DE(Corr)= -0.27090418     E(CORR)=     -76.324552351     Delta=-2.16D-06
 NORM(A)=   0.10326043D+01
 Iteration Nr.   7
 **********************
 DD1Dir will call FoFMem   1 times, MxPair=        20
 NAB=    10 NAA=     0 NBB=     0.
 A-vector RMS=  2.3376042D-06 Max=  1.1424022D-05 conv= 1.00D-05.
 RLE energy=       -0.2709033408
 DE(Corr)= -0.27090415     E(CORR)=     -76.324552323     Delta= 2.87D-08
 NORM(A)=   0.10326049D+01
 Iteration Nr.   8
 **********************
 DD1Dir will call FoFMem   1 times, MxPair=        20
 NAB=    10 NAA=     0 NBB=     0.
 A-vector RMS=  8.7239720D-07 Max=  4.6363130D-06 conv= 1.00D-05.
 RLE energy=       -0.2709038666
 DE(Corr)= -0.27090396     E(CORR)=     -76.324552124     Delta= 1.99D-07
 NORM(A)=   0.10326052D+01
 Iteration Nr.   9
 **********************
 DD1Dir will call FoFMem   1 times, MxPair=        20
 NAB=    10 NAA=     0 NBB=     0.
 A-vector RMS=  2.5734866D-07 Max=  1.4270597D-06 conv= 1.00D-05.
 RLE energy=       -0.2709039513
 DE(Corr)= -0.27090396     E(CORR)=     -76.324552132     Delta=-8.32D-09
 NORM(A)=   0.10326053D+01
 CI/CC converged in    9 iterations to DelEn=-8.32D-09 Conv= 1.00D-07 ErrA1= 2.57D-07 Conv= 1.00D-05
 Wavefunction amplitudes converged. E(Corr)=     -76.324552132    
 Largest amplitude= 2.03D-02
 IPart=  1 IA=    6   11.23% done.
 IPart=  3 IA=   11   21.79% done.
 IPart=  2 IA=   16   31.68% done.
 IPart=  4 IA=   21   40.90% done.
 IPart=  3 IA=   27   51.08% done.
 IPart=  4 IA=   33   60.30% done.
 IPart=  2 IA=   41   71.10% done.
 IPart=  4 IA=   49   80.19% done.
 IPart=  4 IA=   61   90.62% done.
 Time for triples=        7.82 seconds.
 T4(CCSD)= -0.86627613D-02
 T5(CCSD)=  0.29672820D-03
 CCSD(T)= -0.76332918165D+02
 Discarding MO integrals.
 Leave Link  913 at Wed Feb  8 13:51:10 2023, MaxMem=   754974720 cpu:             143.6 elap:              70.1
 (Enter /opt/cluster/programs/g16-c.01/g16/l601.exe)
 Copying SCF densities to generalized density rwf, IOpCl= 0 IROHF=0.

 **********************************************************************

            Population analysis using the SCF Density.

 **********************************************************************

 Orbital symmetries:
       Occupied  (A') (A') (A') (A') (A")
       Virtual   (A') (A') (A') (A") (A') (A') (A') (A') (A") (A")
                 (A') (A') (A') (A') (A') (A') (A") (A') (A") (A')
                 (A") (A') (A') (A") (A') (A") (A') (A') (A') (A")
                 (A') (A") (A') (A') (A") (A') (A") (A') (A') (A')
                 (A') (A") (A') (A") (A") (A') (A') (A') (A') (A")
                 (A') (A") (A') (A') (A') (A") (A") (A') (A') (A")
                 (A') (A") (A") (A') (A') (A') (A') (A") (A') (A')
                 (A") (A') (A') (A') (A") (A') (A") (A') (A") (A")
                 (A") (A') (A') (A') (A') (A') (A')
 The electronic state is 1-A'.
 Alpha  occ. eigenvalues --  -20.55450  -1.35413  -0.76284  -0.55496  -0.50708
 Alpha virt. eigenvalues --    0.03062   0.04679   0.13791   0.15387   0.17064
 Alpha virt. eigenvalues --    0.17919   0.23473   0.24265   0.25962   0.32195
 Alpha virt. eigenvalues --    0.32693   0.36341   0.43878   0.46973   0.61571
 Alpha virt. eigenvalues --    0.64094   0.71007   0.71307   0.72073   0.83121
 Alpha virt. eigenvalues --    0.84929   0.88800   0.91042   0.91377   0.92508
 Alpha virt. eigenvalues --    0.94110   1.01014   1.02807   1.05988   1.09606
 Alpha virt. eigenvalues --    1.14286   1.16205   1.17603   1.27998   1.54113
 Alpha virt. eigenvalues --    1.60442   1.64692   1.66638   1.78208   2.07523
 Alpha virt. eigenvalues --    2.15887   2.24395   2.30076   2.34065   2.36030
 Alpha virt. eigenvalues --    2.38694   2.40417   2.45371   2.71839   2.73033
 Alpha virt. eigenvalues --    2.83759   2.87349   2.99415   3.65817   3.83318
 Alpha virt. eigenvalues --    4.03856   4.12530   4.19324   4.29156   4.38606
 Alpha virt. eigenvalues --    4.39816   4.41941   4.43896   4.56734   4.64922
 Alpha virt. eigenvalues --    4.70171   5.21173   5.28703   5.42384   5.56389
 Alpha virt. eigenvalues --    5.57057   5.89174   5.99576   6.56686   6.68450
 Alpha virt. eigenvalues --    6.74703   7.14239   7.19992   7.23045   7.35193
 Alpha virt. eigenvalues --    7.45783   7.63179   7.74805   7.82741   8.18711
 Alpha virt. eigenvalues --    8.81563  16.91548
          Condensed to atoms (all electrons):
               1          2          3
     1  O    7.807329   0.298448   0.295407
     2  H    0.298448   0.527121   0.000574
     3  H    0.295407   0.000574   0.476692
 Mulliken charges:
               1
     1  O   -0.401184
     2  H    0.173857
     3  H    0.227327
 Sum of Mulliken charges =  -0.00000
 Mulliken charges with hydrogens summed into heavy atoms:
               1
     1  O   -0.000000
 Electronic spatial extent (au):  <R**2>=             19.2113
 Charge=             -0.0000 electrons
 Dipole moment (field-independent basis, Debye):
    X=              0.0095    Y=             -1.6435    Z=              0.0000  Tot=              1.6435
 Quadrupole moment (field-independent basis, Debye-Ang):
   XX=             -3.5807   YY=             -6.7239   ZZ=             -7.5383
   XY=              0.2159   XZ=              0.0000   YZ=              0.0000
 Traceless Quadrupole moment (field-independent basis, Debye-Ang):
   XX=              2.3670   YY=             -0.7763   ZZ=             -1.5907
   XY=              0.2159   XZ=              0.0000   YZ=              0.0000
 Octapole moment (field-independent basis, Debye-Ang**2):
  XXX=              0.0450  YYY=             -0.8493  ZZZ=              0.0000  XYY=             -0.1103
  XXY=             -1.2855  XXZ=              0.0000  XZZ=              0.0252  YZZ=             -0.2248
  YYZ=              0.0000  XYZ=              0.0000
 Hexadecapole moment (field-independent basis, Debye-Ang**3):
 XXXX=             -5.1724 YYYY=             -7.0536 ZZZZ=             -6.7584 XXXY=              0.0735
 XXXZ=              0.0000 YYYX=             -0.0115 YYYZ=              0.0000 ZZZX=              0.0000
 ZZZY=              0.0000 XXYY=             -2.0166 XXZZ=             -2.4623 YYZZ=             -2.3201
 XXYZ=              0.0000 YYXZ=              0.0000 ZZXY=             -0.0353
 N-N= 9.394793238998D+00 E-N=-1.994555259731D+02  KE= 7.602567750100D+01
 Symmetry A'   KE= 7.158284127886D+01
 Symmetry A"   KE= 4.442836222134D+00
 Leave Link  601 at Wed Feb  8 13:51:11 2023, MaxMem=   754974720 cpu:               0.9 elap:               0.5
 (Enter /opt/cluster/programs/g16-c.01/g16/l9999.exe)
 Unable to Open any file for archive entry.
 1\1\GINC-NODE61\SP\RCCSD(T)-FC\Aug-CC-pVTZ\H2O1\BOITTIER\08-Feb-2023\0
 \\#P CCSD(T)/aug-cc-pVTZ scf(maxcycle=200)\\Gaussian input\\0,1\O,0,0.
 ,0.11751,0.\H,0,0.7183372325,-0.4395112028,0.\H,0,-0.9025375702,-0.206
 6919964,0.\\Version=ES64L-G16RevC.01\State=1-A'\HF=-76.0536482\MP2=-76
 .3196924\MP3=-76.3228226\MP4D=-76.3272117\MP4DQ=-76.3232831\MP4SDQ=-76
 .3250046\CCSD=-76.3245521\CCSD(T)=-76.3329182\RMSD=2.466e-09\PG=CS [SG
 (H2O1)]\\@
 The archive entry for this job was punched.


 DIATOMIC MOLECULES ARE PECULIAR BECAUSE THEY ONLY HAVE TWO ENDS,
 AND THESE ENDS ARE VERY CLOSE TOGETHER.
 KLAUS RUEDENBERG, REV.MOD.PHYS. PG 176, 32, (1960)
 Job cpu time:       0 days  0 hours  2 minutes 59.1 seconds.
 Elapsed time:       0 days  0 hours  1 minutes 26.1 seconds.
 File lengths (MBytes):  RWF=     75 Int=      0 D2E=      0 Chk=      2 Scr=      1
 Normal termination of Gaussian 16 at Wed Feb  8 13:51:11 2023.
