 Entering Gaussian System, Link 0=/opt/cluster/programs/g16-c.01/g16/g16
 Input=/scratch/boittier/jobs/tmp.7311986/gaussian_158_water_hf_adz2.com
 Output=/scratch/boittier/jobs/tmp.7311986/gaussian_158_water_hf_adz2.out
 Initial command:
 /opt/cluster/programs/g16-c.01/g16/l1.exe "/scratch/boittier/jobs/tmp.7311986/Gau-160217.inp" -scrdir="/scratch/boittier/jobs/tmp.7311986/"
 Entering Link 1 = /opt/cluster/programs/g16-c.01/g16/l1.exe PID=    160218.
  
 Copyright (c) 1988-2019, Gaussian, Inc.  All Rights Reserved.
  
 This is part of the Gaussian(R) 16 program.  It is based on
 the Gaussian(R) 09 system (copyright 2009, Gaussian, Inc.),
 the Gaussian(R) 03 system (copyright 2003, Gaussian, Inc.),
 the Gaussian(R) 98 system (copyright 1998, Gaussian, Inc.),
 the Gaussian(R) 94 system (copyright 1995, Gaussian, Inc.),
 the Gaussian 92(TM) system (copyright 1992, Gaussian, Inc.),
 the Gaussian 90(TM) system (copyright 1990, Gaussian, Inc.),
 the Gaussian 88(TM) system (copyright 1988, Gaussian, Inc.),
 the Gaussian 86(TM) system (copyright 1986, Carnegie Mellon
 University), and the Gaussian 82(TM) system (copyright 1983,
 Carnegie Mellon University). Gaussian is a federally registered
 trademark of Gaussian, Inc.
  
 This software contains proprietary and confidential information,
 including trade secrets, belonging to Gaussian, Inc.
  
 This software is provided under written license and may be
 used, copied, transmitted, or stored only in accord with that
 written license.
  
 The following legend is applicable only to US Government
 contracts under FAR:
  
                    RESTRICTED RIGHTS LEGEND
  
 Use, reproduction and disclosure by the US Government is
 subject to restrictions as set forth in subparagraphs (a)
 and (c) of the Commercial Computer Software - Restricted
 Rights clause in FAR 52.227-19.
  
 Gaussian, Inc.
 340 Quinnipiac St., Bldg. 40, Wallingford CT 06492
  
  
 ---------------------------------------------------------------
 Warning -- This program may not be used in any manner that
 competes with the business of Gaussian, Inc. or will provide
 assistance to any competitor of Gaussian, Inc.  The licensee
 of this program is prohibited from giving any competitor of
 Gaussian, Inc. access to this program.  By using this program,
 the user acknowledges that Gaussian, Inc. is engaged in the
 business of creating and licensing software in the field of
 computational chemistry and represents and warrants to the
 licensee that it is not a competitor of Gaussian, Inc. and that
 it will not use this program in any manner prohibited above.
 ---------------------------------------------------------------
  

 Cite this work as:
 Gaussian 16, Revision C.01,
 M. J. Frisch, G. W. Trucks, H. B. Schlegel, G. E. Scuseria, 
 M. A. Robb, J. R. Cheeseman, G. Scalmani, V. Barone, 
 G. A. Petersson, H. Nakatsuji, X. Li, M. Caricato, A. V. Marenich, 
 J. Bloino, B. G. Janesko, R. Gomperts, B. Mennucci, H. P. Hratchian, 
 J. V. Ortiz, A. F. Izmaylov, J. L. Sonnenberg, D. Williams-Young, 
 F. Ding, F. Lipparini, F. Egidi, J. Goings, B. Peng, A. Petrone, 
 T. Henderson, D. Ranasinghe, V. G. Zakrzewski, J. Gao, N. Rega, 
 G. Zheng, W. Liang, M. Hada, M. Ehara, K. Toyota, R. Fukuda, 
 J. Hasegawa, M. Ishida, T. Nakajima, Y. Honda, O. Kitao, H. Nakai, 
 T. Vreven, K. Throssell, J. A. Montgomery, Jr., J. E. Peralta, 
 F. Ogliaro, M. J. Bearpark, J. J. Heyd, E. N. Brothers, K. N. Kudin, 
 V. N. Staroverov, T. A. Keith, R. Kobayashi, J. Normand, 
 K. Raghavachari, A. P. Rendell, J. C. Burant, S. S. Iyengar, 
 J. Tomasi, M. Cossi, J. M. Millam, M. Klene, C. Adamo, R. Cammi, 
 J. W. Ochterski, R. L. Martin, K. Morokuma, O. Farkas, 
 J. B. Foresman, and D. J. Fox, Gaussian, Inc., Wallingford CT, 2019.
 
 ******************************************
 Gaussian 16:  ES64L-G16RevC.01  3-Jul-2019
                20-Feb-2023 
 ******************************************
 %nproc=4
 Will use up to    4 processors via shared memory.
 %mem=5760MB
 %chk=gaussian_158_water_hf_adz2.chk
 -----------------------------------
 #P HF/aug-cc-pVDZ scf(maxcycle=200)
 -----------------------------------
 1/38=1,172=1/1;
 2/12=2,17=6,18=5,40=1/2;
 3/5=16,7=10,11=9,25=1,30=1/1,2,3;
 4//1;
 5/5=2,7=200,38=5/2;
 6/7=2,8=2,9=2,10=2,28=1/1;
 99/5=1,9=1/99;
 Leave Link    1 at Mon Feb 20 10:17:07 2023, MaxMem=   754974720 cpu:               0.1 elap:               0.0
 (Enter /opt/cluster/programs/g16-c.01/g16/l101.exe)
 --------------
 Gaussian input
 --------------
 Symbolic Z-matrix:
 Charge =  0 Multiplicity = 1
 O                     0.        0.11751   0. 
 H                     0.79736  -0.50079   0. 
 H                    -0.89067  -0.23799   0. 
 
 ITRead=  0  0  0
 MicOpt= -1 -1 -1
 NAtoms=      3 NQM=        3 NQMF=       0 NMMI=      0 NMMIF=      0
                NMic=       0 NMicF=      0.
                    Isotopes and Nuclear Properties:
 (Nuclear quadrupole moments (NQMom) in fm**2, nuclear magnetic moments (NMagM)
  in nuclear magnetons)

  Atom         1           2           3
 IAtWgt=          16           1           1
 AtmWgt=  15.9949146   1.0078250   1.0078250
 NucSpn=           0           1           1
 AtZEff=  -0.0000000  -0.0000000  -0.0000000
 NQMom=    0.0000000   0.0000000   0.0000000
 NMagM=    0.0000000   2.7928460   2.7928460
 AtZNuc=   8.0000000   1.0000000   1.0000000
 Leave Link  101 at Mon Feb 20 10:17:07 2023, MaxMem=   754974720 cpu:               0.8 elap:               0.2
 (Enter /opt/cluster/programs/g16-c.01/g16/l202.exe)
                          Input orientation:                          
 ---------------------------------------------------------------------
 Center     Atomic      Atomic             Coordinates (Angstroms)
 Number     Number       Type             X           Y           Z
 ---------------------------------------------------------------------
      1          8           0        0.000000    0.117510    0.000000
      2          1           0        0.797362   -0.500790    0.000000
      3          1           0       -0.890673   -0.237993    0.000000
 ---------------------------------------------------------------------
                    Distance matrix (angstroms):
                    1          2          3
     1  O    0.000000
     2  H    1.009000   0.000000
     3  H    0.959000   1.708369   0.000000
 Stoichiometry    H2O
 Framework group  CS[SG(H2O)]
 Deg. of freedom     3
 Full point group                 CS      NOp   2
 Largest Abelian subgroup         CS      NOp   2
 Largest concise Abelian subgroup C1      NOp   1
                         Standard orientation:                         
 ---------------------------------------------------------------------
 Center     Atomic      Atomic             Coordinates (Angstroms)
 Number     Number       Type             X           Y           Z
 ---------------------------------------------------------------------
      1          8           0        0.000000    0.097826    0.000000
      2          1           0        0.852703   -0.441598    0.000000
      3          1           0       -0.852703   -0.341012   -0.000000
 ---------------------------------------------------------------------
 Rotational constants (GHZ):        1185.8276595         343.1480801         266.1353442
 Leave Link  202 at Mon Feb 20 10:17:07 2023, MaxMem=   754974720 cpu:               0.1 elap:               0.0
 (Enter /opt/cluster/programs/g16-c.01/g16/l301.exe)
 Standard basis: Aug-CC-pVDZ (5D, 7F)
 Ernie: Thresh=  0.10000D-02 Tol=  0.10000D-05 Strict=F.
 Ernie:  2 primitive shells out of 39 were deleted.
 There are    32 symmetry adapted cartesian basis functions of A'  symmetry.
 There are    11 symmetry adapted cartesian basis functions of A"  symmetry.
 There are    30 symmetry adapted basis functions of A'  symmetry.
 There are    11 symmetry adapted basis functions of A"  symmetry.
    41 basis functions,    65 primitive gaussians,    43 cartesian basis functions
     5 alpha electrons        5 beta electrons
       nuclear repulsion energy         8.9198209303 Hartrees.
 IExCor=    0 DFT=F Ex=HF Corr=None ExCW=0 ScaHFX=  1.000000
 ScaDFX=  1.000000  1.000000  1.000000  1.000000 ScalE2=  1.000000  1.000000
 IRadAn=      5 IRanWt=     -1 IRanGd=            0 ICorTp=0 IEmpDi=  4
 NAtoms=    3 NActive=    3 NUniq=    3 SFac= 1.00D+00 NAtFMM=   60 NAOKFM=F Big=F
 Integral buffers will be    131072 words long.
 Raffenetti 1 integral format.
 Two-electron integral symmetry is turned on.
 Leave Link  301 at Mon Feb 20 10:17:07 2023, MaxMem=   754974720 cpu:               0.2 elap:               0.1
 (Enter /opt/cluster/programs/g16-c.01/g16/l302.exe)
 NPDir=0 NMtPBC=     1 NCelOv=     1 NCel=       1 NClECP=     1 NCelD=      1
         NCelK=      1 NCelE2=     1 NClLst=     1 CellRange=     0.0.
 One-electron integrals computed using PRISM.
 One-electron integral symmetry used in STVInt
 NBasis=    41 RedAO= T EigKep=  3.04D-03  NBF=    30    11
 NBsUse=    41 1.00D-06 EigRej= -1.00D+00 NBFU=    30    11
 Leave Link  302 at Mon Feb 20 10:17:07 2023, MaxMem=   754974720 cpu:               0.8 elap:               0.3
 (Enter /opt/cluster/programs/g16-c.01/g16/l303.exe)
 DipDrv:  MaxL=1.
 Leave Link  303 at Mon Feb 20 10:17:07 2023, MaxMem=   754974720 cpu:               0.1 elap:               0.0
 (Enter /opt/cluster/programs/g16-c.01/g16/l401.exe)
 ExpMin= 2.97D-02 ExpMax= 1.17D+04 ExpMxC= 4.01D+02 IAcc=3 IRadAn=         5 AccDes= 0.00D+00
 Harris functional with IExCor=  205 and IRadAn=       5 diagonalized for initial guess.
 HarFok:  IExCor=  205 AccDes= 0.00D+00 IRadAn=         5 IDoV= 1 UseB2=F ITyADJ=14
 ICtDFT=  3500011 ScaDFX=  1.000000  1.000000  1.000000  1.000000
 FoFCou: FMM=F IPFlag=           0 FMFlag=      100000 FMFlg1=           0
         NFxFlg=           0 DoJE=T BraDBF=F KetDBF=T FulRan=T
         wScrn=  0.000000 ICntrl=       500 IOpCl=  0 I1Cent=   200000004 NGrid=           0
         NMat0=    1 NMatS0=      1 NMatT0=    0 NMatD0=    1 NMtDS0=    0 NMtDT0=    0
 Petite list used in FoFCou.
 Harris En= -76.1193139502395    
 JPrj=0 DoOrth=F DoCkMO=F.
 Initial guess orbital symmetries:
       Occupied  (A') (A') (A') (A') (A")
       Virtual   (A') (A') (A') (A") (A') (A') (A') (A') (A") (A')
                 (A") (A') (A') (A') (A') (A') (A") (A') (A") (A')
                 (A") (A') (A') (A') (A") (A") (A') (A') (A') (A')
                 (A') (A") (A') (A") (A') (A')
 The electronic state of the initial guess is 1-A'.
 Leave Link  401 at Mon Feb 20 10:17:08 2023, MaxMem=   754974720 cpu:               0.6 elap:               0.1
 (Enter /opt/cluster/programs/g16-c.01/g16/l502.exe)
 Keep R1 ints in memory in symmetry-blocked form, NReq=1210668.
 FoFCou: FMM=F IPFlag=           0 FMFlag=           0 FMFlg1=           0
         NFxFlg=           0 DoJE=F BraDBF=F KetDBF=F FulRan=T
         wScrn=  0.000000 ICntrl=       600 IOpCl=  0 I1Cent=           0 NGrid=           0
         NMat0=    1 NMatS0=    861 NMatT0=    0 NMatD0=    1 NMtDS0=    0 NMtDT0=    0
 Petite list used in FoFCou.
 Closed shell SCF:
 Using DIIS extrapolation, IDIIS=  1040.
 NGot=   754974720 LenX=   754771907 LenY=   754769617
 Requested convergence on RMS density matrix=1.00D-08 within 200 cycles.
 Requested convergence on MAX density matrix=1.00D-06.
 Requested convergence on             energy=1.00D-06.
 No special actions if energy rises.

 Cycle   1  Pass 1  IDiag  1:
 E= -75.9554187472611    
 DIIS: error= 5.09D-02 at cycle   1 NSaved=   1.
 NSaved= 1 IEnMin= 1 EnMin= -75.9554187472611     IErMin= 1 ErrMin= 5.09D-02
 ErrMax= 5.09D-02  0.00D+00 EMaxC= 1.00D-01 BMatC= 1.16D-01 BMatP= 1.16D-01
 IDIUse=3 WtCom= 4.91D-01 WtEn= 5.09D-01
 Coeff-Com:  0.100D+01
 Coeff-En:   0.100D+01
 Coeff:      0.100D+01
 Gap=     0.457 Goal=   None    Shift=    0.000
 GapD=    0.457 DampG=2.000 DampE=0.500 DampFc=1.0000 IDamp=-1.
 RMSDP=6.22D-03 MaxDP=1.17D-01              OVMax= 1.20D-01

 Cycle   2  Pass 1  IDiag  1:
 E= -75.9985736034552     Delta-E=       -0.043154856194 Rises=F Damp=F
 DIIS: error= 4.05D-02 at cycle   2 NSaved=   2.
 NSaved= 2 IEnMin= 2 EnMin= -75.9985736034552     IErMin= 2 ErrMin= 4.05D-02
 ErrMax= 4.05D-02  0.00D+00 EMaxC= 1.00D-01 BMatC= 4.63D-02 BMatP= 1.16D-01
 IDIUse=3 WtCom= 5.95D-01 WtEn= 4.05D-01
 Coeff-Com:  0.377D+00 0.623D+00
 Coeff-En:   0.224D+00 0.776D+00
 Coeff:      0.315D+00 0.685D+00
 Gap=     0.555 Goal=   None    Shift=    0.000
 RMSDP=2.93D-03 MaxDP=5.48D-02 DE=-4.32D-02 OVMax= 5.96D-02

 Cycle   3  Pass 1  IDiag  1:
 E= -76.0306453335003     Delta-E=       -0.032071730045 Rises=F Damp=F
 DIIS: error= 4.69D-03 at cycle   3 NSaved=   3.
 NSaved= 3 IEnMin= 3 EnMin= -76.0306453335003     IErMin= 3 ErrMin= 4.69D-03
 ErrMax= 4.69D-03  0.00D+00 EMaxC= 1.00D-01 BMatC= 1.14D-03 BMatP= 4.63D-02
 IDIUse=3 WtCom= 9.53D-01 WtEn= 4.69D-02
 Coeff-Com: -0.373D-01 0.920D-01 0.945D+00
 Coeff-En:   0.000D+00 0.000D+00 0.100D+01
 Coeff:     -0.355D-01 0.877D-01 0.948D+00
 Gap=     0.536 Goal=   None    Shift=    0.000
 RMSDP=4.71D-04 MaxDP=8.18D-03 DE=-3.21D-02 OVMax= 9.16D-03

 Cycle   4  Pass 1  IDiag  1:
 E= -76.0315228378498     Delta-E=       -0.000877504350 Rises=F Damp=F
 DIIS: error= 6.39D-04 at cycle   4 NSaved=   4.
 NSaved= 4 IEnMin= 4 EnMin= -76.0315228378498     IErMin= 4 ErrMin= 6.39D-04
 ErrMax= 6.39D-04  0.00D+00 EMaxC= 1.00D-01 BMatC= 8.28D-06 BMatP= 1.14D-03
 IDIUse=3 WtCom= 9.94D-01 WtEn= 6.39D-03
 Coeff-Com:  0.820D-02-0.425D-01-0.321D+00 0.135D+01
 Coeff-En:   0.000D+00 0.000D+00 0.000D+00 0.100D+01
 Coeff:      0.815D-02-0.423D-01-0.318D+00 0.135D+01
 Gap=     0.537 Goal=   None    Shift=    0.000
 RMSDP=1.24D-04 MaxDP=1.17D-03 DE=-8.78D-04 OVMax= 2.60D-03

 Cycle   5  Pass 1  IDiag  1:
 E= -76.0315441925077     Delta-E=       -0.000021354658 Rises=F Damp=F
 DIIS: error= 1.82D-04 at cycle   5 NSaved=   5.
 NSaved= 5 IEnMin= 5 EnMin= -76.0315441925077     IErMin= 5 ErrMin= 1.82D-04
 ErrMax= 1.82D-04  0.00D+00 EMaxC= 1.00D-01 BMatC= 4.19D-07 BMatP= 8.28D-06
 IDIUse=3 WtCom= 9.98D-01 WtEn= 1.82D-03
 Coeff-Com:  0.386D-03 0.209D-02 0.113D-01-0.264D+00 0.125D+01
 Coeff-En:   0.000D+00 0.000D+00 0.000D+00 0.000D+00 0.100D+01
 Coeff:      0.385D-03 0.208D-02 0.113D-01-0.263D+00 0.125D+01
 Gap=     0.538 Goal=   None    Shift=    0.000
 RMSDP=3.32D-05 MaxDP=4.11D-04 DE=-2.14D-05 OVMax= 7.79D-04

 Cycle   6  Pass 1  IDiag  1:
 E= -76.0315455735217     Delta-E=       -0.000001381014 Rises=F Damp=F
 DIIS: error= 3.77D-05 at cycle   6 NSaved=   6.
 NSaved= 6 IEnMin= 6 EnMin= -76.0315455735217     IErMin= 6 ErrMin= 3.77D-05
 ErrMax= 3.77D-05  0.00D+00 EMaxC= 1.00D-01 BMatC= 1.84D-08 BMatP= 4.19D-07
 IDIUse=1 WtCom= 1.00D+00 WtEn= 0.00D+00
 Coeff-Com: -0.441D-03 0.159D-02 0.133D-01-0.198D-01-0.252D+00 0.126D+01
 Coeff:     -0.441D-03 0.159D-02 0.133D-01-0.198D-01-0.252D+00 0.126D+01
 Gap=     0.538 Goal=   None    Shift=    0.000
 RMSDP=6.45D-06 MaxDP=1.06D-04 DE=-1.38D-06 OVMax= 1.86D-04

 Cycle   7  Pass 1  IDiag  1:
 E= -76.0315456366711     Delta-E=       -0.000000063149 Rises=F Damp=F
 DIIS: error= 8.42D-06 at cycle   7 NSaved=   7.
 NSaved= 7 IEnMin= 7 EnMin= -76.0315456366711     IErMin= 7 ErrMin= 8.42D-06
 ErrMax= 8.42D-06  0.00D+00 EMaxC= 1.00D-01 BMatC= 9.50D-10 BMatP= 1.84D-08
 IDIUse=1 WtCom= 1.00D+00 WtEn= 0.00D+00
 Coeff-Com:  0.168D-03-0.779D-03-0.644D-02 0.234D-01 0.419D-01-0.505D+00
 Coeff-Com:  0.145D+01
 Coeff:      0.168D-03-0.779D-03-0.644D-02 0.234D-01 0.419D-01-0.505D+00
 Coeff:      0.145D+01
 Gap=     0.538 Goal=   None    Shift=    0.000
 RMSDP=1.31D-06 MaxDP=2.73D-05 DE=-6.31D-08 OVMax= 4.03D-05

 Cycle   8  Pass 1  IDiag  1:
 E= -76.0315456394990     Delta-E=       -0.000000002828 Rises=F Damp=F
 DIIS: error= 1.20D-06 at cycle   8 NSaved=   8.
 NSaved= 8 IEnMin= 8 EnMin= -76.0315456394990     IErMin= 8 ErrMin= 1.20D-06
 ErrMax= 1.20D-06  0.00D+00 EMaxC= 1.00D-01 BMatC= 2.55D-11 BMatP= 9.50D-10
 IDIUse=1 WtCom= 1.00D+00 WtEn= 0.00D+00
 Coeff-Com: -0.211D-04 0.114D-03 0.102D-02-0.513D-02 0.869D-03 0.741D-01
 Coeff-Com: -0.352D+00 0.128D+01
 Coeff:     -0.211D-04 0.114D-03 0.102D-02-0.513D-02 0.869D-03 0.741D-01
 Coeff:     -0.352D+00 0.128D+01
 Gap=     0.538 Goal=   None    Shift=    0.000
 RMSDP=2.33D-07 MaxDP=3.27D-06 DE=-2.83D-09 OVMax= 4.67D-06

 Cycle   9  Pass 1  IDiag  1:
 E= -76.0315456395585     Delta-E=       -0.000000000059 Rises=F Damp=F
 DIIS: error= 1.34D-07 at cycle   9 NSaved=   9.
 NSaved= 9 IEnMin= 9 EnMin= -76.0315456395585     IErMin= 9 ErrMin= 1.34D-07
 ErrMax= 1.34D-07  0.00D+00 EMaxC= 1.00D-01 BMatC= 4.26D-13 BMatP= 2.55D-11
 IDIUse=1 WtCom= 1.00D+00 WtEn= 0.00D+00
 Coeff-Com: -0.489D-05 0.228D-04 0.184D-03-0.616D-03-0.127D-02 0.132D-01
 Coeff-Com: -0.322D-01-0.429D-01 0.106D+01
 Coeff:     -0.489D-05 0.228D-04 0.184D-03-0.616D-03-0.127D-02 0.132D-01
 Coeff:     -0.322D-01-0.429D-01 0.106D+01
 Gap=     0.538 Goal=   None    Shift=    0.000
 RMSDP=2.98D-08 MaxDP=3.02D-07 DE=-5.95D-11 OVMax= 4.67D-07

 Cycle  10  Pass 1  IDiag  1:
 E= -76.0315456395593     Delta-E=       -0.000000000001 Rises=F Damp=F
 DIIS: error= 3.73D-08 at cycle  10 NSaved=  10.
 NSaved=10 IEnMin=10 EnMin= -76.0315456395593     IErMin=10 ErrMin= 3.73D-08
 ErrMax= 3.73D-08  0.00D+00 EMaxC= 1.00D-01 BMatC= 2.60D-14 BMatP= 4.26D-13
 IDIUse=1 WtCom= 1.00D+00 WtEn= 0.00D+00
 Coeff-Com:  0.167D-05-0.829D-05-0.698D-04 0.287D-03 0.319D-03-0.543D-02
 Coeff-Com:  0.192D-01-0.342D-01-0.283D+00 0.130D+01
 Coeff:      0.167D-05-0.829D-05-0.698D-04 0.287D-03 0.319D-03-0.543D-02
 Coeff:      0.192D-01-0.342D-01-0.283D+00 0.130D+01
 Gap=     0.538 Goal=   None    Shift=    0.000
 RMSDP=8.01D-09 MaxDP=8.50D-08 DE=-8.81D-13 OVMax= 1.41D-07

 SCF Done:  E(RHF) =  -76.0315456396     A.U. after   10 cycles
            NFock= 10  Conv=0.80D-08     -V/T= 2.0030
 KE= 7.580694866996D+01 PE=-1.983297031751D+02 EE= 3.757138793537D+01
 Leave Link  502 at Mon Feb 20 10:17:08 2023, MaxMem=   754974720 cpu:               0.6 elap:               0.2
 (Enter /opt/cluster/programs/g16-c.01/g16/l601.exe)
 Copying SCF densities to generalized density rwf, IOpCl= 0 IROHF=0.

 **********************************************************************

            Population analysis using the SCF Density.

 **********************************************************************

 Orbital symmetries:
       Occupied  (A') (A') (A') (A') (A")
       Virtual   (A') (A') (A') (A") (A') (A') (A') (A') (A") (A')
                 (A") (A') (A') (A') (A') (A') (A") (A') (A") (A')
                 (A') (A") (A') (A') (A") (A") (A') (A') (A') (A')
                 (A') (A") (A') (A") (A') (A')
 The electronic state is 1-A'.
 Alpha  occ. eigenvalues --  -20.57305  -1.33351  -0.73122  -0.55014  -0.50207
 Alpha virt. eigenvalues --    0.03589   0.05637   0.17648   0.19642   0.21461
 Alpha virt. eigenvalues --    0.22679   0.29408   0.30791   0.37492   0.43339
 Alpha virt. eigenvalues --    0.45531   0.51782   0.63885   0.65545   0.84318
 Alpha virt. eigenvalues --    0.86813   1.08230   1.08722   1.14724   1.40924
 Alpha virt. eigenvalues --    1.46466   1.49210   1.56948   1.96421   2.02689
 Alpha virt. eigenvalues --    2.07156   2.39242   2.42718   2.58004   2.74487
 Alpha virt. eigenvalues --    2.85578   3.65595   3.66368   3.70415   4.12007
 Alpha virt. eigenvalues --    4.21196
          Condensed to atoms (all electrons):
               1          2          3
     1  O    7.738842   0.324535   0.341484
     2  H    0.324535   0.484025  -0.040695
     3  H    0.341484  -0.040695   0.526484
 Mulliken charges:
               1
     1  O   -0.404861
     2  H    0.232134
     3  H    0.172727
 Sum of Mulliken charges =   0.00000
 Mulliken charges with hydrogens summed into heavy atoms:
               1
     1  O    0.000000
 Electronic spatial extent (au):  <R**2>=             19.9248
 Charge=              0.0000 electrons
 Dipole moment (field-independent basis, Debye):
    X=             -0.0110    Y=             -1.7322    Z=              0.0000  Tot=              1.7322
 Quadrupole moment (field-independent basis, Debye-Ang):
   XX=             -3.5011   YY=             -6.7607   ZZ=             -7.6898
   XY=             -0.2143   XZ=              0.0000   YZ=             -0.0000
 Traceless Quadrupole moment (field-independent basis, Debye-Ang):
   XX=              2.4828   YY=             -0.7769   ZZ=             -1.7059
   XY=             -0.2143   XZ=              0.0000   YZ=             -0.0000
 Octapole moment (field-independent basis, Debye-Ang**2):
  XXX=             -0.0452  YYY=             -0.8929  ZZZ=             -0.0000  XYY=              0.1176
  XXY=             -1.4429  XXZ=             -0.0000  XZZ=             -0.0301  YZZ=             -0.2369
  YYZ=              0.0000  XYZ=             -0.0000
 Hexadecapole moment (field-independent basis, Debye-Ang**3):
 XXXX=             -5.5184 YYYY=             -7.5190 ZZZZ=             -7.0455 XXXY=             -0.0784
 XXXZ=              0.0000 YYYX=              0.0135 YYYZ=             -0.0000 ZZZX=             -0.0000
 ZZZY=             -0.0000 XXYY=             -2.1181 XXZZ=             -2.6266 YYZZ=             -2.4556
 XXYZ=             -0.0000 YYXZ=             -0.0000 ZZXY=              0.0392
 N-N= 8.919820930255D+00 E-N=-1.983297028205D+02  KE= 7.580694866996D+01
 Symmetry A'   KE= 7.138074396929D+01
 Symmetry A"   KE= 4.426204700665D+00
 No NMR shielding tensors so no spin-rotation constants.
 Leave Link  601 at Mon Feb 20 10:17:08 2023, MaxMem=   754974720 cpu:               0.3 elap:               0.1
 (Enter /opt/cluster/programs/g16-c.01/g16/l9999.exe)
 Unable to Open any file for archive entry.
 1\1\GINC-NODE106\SP\RHF\Aug-CC-pVDZ\H2O1\BOITTIER\20-Feb-2023\0\\#P HF
 /aug-cc-pVDZ scf(maxcycle=200)\\Gaussian input\\0,1\O,0,0.,0.11751,0.\
 H,0,0.7973622306,-0.5007896629,0.\H,0,-0.8906732822,-0.2379926082,0.\\
 Version=ES64L-G16RevC.01\State=1-A'\HF=-76.0315456\RMSD=8.014e-09\Dipo
 le=-0.0693214,-0.6779696,0.\Quadrupole=1.7935666,-0.5252662,-1.2683004
 ,-0.3865347,0.,0.\PG=CS [SG(H2O1)]\\@
 The archive entry for this job was punched.


 ALL MY ATTEMPTS TO ADAPT THE THEORETICAL FOUNDATIONS OF PHYSICS
 TO THESE NEW NOTIONS FAILED COMPLETELY. IT WAS AS IF THE GROUND HAD
 BEEN PULLED OUT FROM UNDER ONE WITH NO FIRM FOUNDATION TO BE SEEN ANYWHERE,
 UPON WHICH ONE COULD HAVE BUILT.  -- A.EINSTEIN
 Job cpu time:       0 days  0 hours  0 minutes  3.7 seconds.
 Elapsed time:       0 days  0 hours  0 minutes  1.1 seconds.
 File lengths (MBytes):  RWF=      6 Int=      0 D2E=      0 Chk=      1 Scr=      1
 Normal termination of Gaussian 16 at Mon Feb 20 10:17:08 2023.
