 Entering Gaussian System, Link 0=/opt/cluster/programs/g16-c.01/g16/g16
 Input=/scratch/boittier/jobs/tmp.7312138/gaussian_129_water_hf_adz.com
 Output=/scratch/boittier/jobs/tmp.7312138/gaussian_129_water_hf_adz.out
 Initial command:
 /opt/cluster/programs/g16-c.01/g16/l1.exe "/scratch/boittier/jobs/tmp.7312138/Gau-186252.inp" -scrdir="/scratch/boittier/jobs/tmp.7312138/"
 Entering Link 1 = /opt/cluster/programs/g16-c.01/g16/l1.exe PID=    186253.
  
 Copyright (c) 1988-2019, Gaussian, Inc.  All Rights Reserved.
  
 This is part of the Gaussian(R) 16 program.  It is based on
 the Gaussian(R) 09 system (copyright 2009, Gaussian, Inc.),
 the Gaussian(R) 03 system (copyright 2003, Gaussian, Inc.),
 the Gaussian(R) 98 system (copyright 1998, Gaussian, Inc.),
 the Gaussian(R) 94 system (copyright 1995, Gaussian, Inc.),
 the Gaussian 92(TM) system (copyright 1992, Gaussian, Inc.),
 the Gaussian 90(TM) system (copyright 1990, Gaussian, Inc.),
 the Gaussian 88(TM) system (copyright 1988, Gaussian, Inc.),
 the Gaussian 86(TM) system (copyright 1986, Carnegie Mellon
 University), and the Gaussian 82(TM) system (copyright 1983,
 Carnegie Mellon University). Gaussian is a federally registered
 trademark of Gaussian, Inc.
  
 This software contains proprietary and confidential information,
 including trade secrets, belonging to Gaussian, Inc.
  
 This software is provided under written license and may be
 used, copied, transmitted, or stored only in accord with that
 written license.
  
 The following legend is applicable only to US Government
 contracts under FAR:
  
                    RESTRICTED RIGHTS LEGEND
  
 Use, reproduction and disclosure by the US Government is
 subject to restrictions as set forth in subparagraphs (a)
 and (c) of the Commercial Computer Software - Restricted
 Rights clause in FAR 52.227-19.
  
 Gaussian, Inc.
 340 Quinnipiac St., Bldg. 40, Wallingford CT 06492
  
  
 ---------------------------------------------------------------
 Warning -- This program may not be used in any manner that
 competes with the business of Gaussian, Inc. or will provide
 assistance to any competitor of Gaussian, Inc.  The licensee
 of this program is prohibited from giving any competitor of
 Gaussian, Inc. access to this program.  By using this program,
 the user acknowledges that Gaussian, Inc. is engaged in the
 business of creating and licensing software in the field of
 computational chemistry and represents and warrants to the
 licensee that it is not a competitor of Gaussian, Inc. and that
 it will not use this program in any manner prohibited above.
 ---------------------------------------------------------------
  

 Cite this work as:
 Gaussian 16, Revision C.01,
 M. J. Frisch, G. W. Trucks, H. B. Schlegel, G. E. Scuseria, 
 M. A. Robb, J. R. Cheeseman, G. Scalmani, V. Barone, 
 G. A. Petersson, H. Nakatsuji, X. Li, M. Caricato, A. V. Marenich, 
 J. Bloino, B. G. Janesko, R. Gomperts, B. Mennucci, H. P. Hratchian, 
 J. V. Ortiz, A. F. Izmaylov, J. L. Sonnenberg, D. Williams-Young, 
 F. Ding, F. Lipparini, F. Egidi, J. Goings, B. Peng, A. Petrone, 
 T. Henderson, D. Ranasinghe, V. G. Zakrzewski, J. Gao, N. Rega, 
 G. Zheng, W. Liang, M. Hada, M. Ehara, K. Toyota, R. Fukuda, 
 J. Hasegawa, M. Ishida, T. Nakajima, Y. Honda, O. Kitao, H. Nakai, 
 T. Vreven, K. Throssell, J. A. Montgomery, Jr., J. E. Peralta, 
 F. Ogliaro, M. J. Bearpark, J. J. Heyd, E. N. Brothers, K. N. Kudin, 
 V. N. Staroverov, T. A. Keith, R. Kobayashi, J. Normand, 
 K. Raghavachari, A. P. Rendell, J. C. Burant, S. S. Iyengar, 
 J. Tomasi, M. Cossi, J. M. Millam, M. Klene, C. Adamo, R. Cammi, 
 J. W. Ochterski, R. L. Martin, K. Morokuma, O. Farkas, 
 J. B. Foresman, and D. J. Fox, Gaussian, Inc., Wallingford CT, 2019.
 
 ******************************************
 Gaussian 16:  ES64L-G16RevC.01  3-Jul-2019
                20-Feb-2023 
 ******************************************
 %nproc=4
 Will use up to    4 processors via shared memory.
 %mem=5760MB
 %chk=gaussian_129_water_hf_adz.chk
 -----------------------------------
 #P HF/aug-cc-pVDZ scf(maxcycle=200)
 -----------------------------------
 1/38=1,172=1/1;
 2/12=2,17=6,18=5,40=1/2;
 3/5=16,7=10,11=9,25=1,30=1/1,2,3;
 4//1;
 5/5=2,7=200,38=5/2;
 6/7=2,8=2,9=2,10=2,28=1/1;
 99/5=1,9=1/99;
 Leave Link    1 at Mon Feb 20 10:28:46 2023, MaxMem=   754974720 cpu:               0.1 elap:               0.0
 (Enter /opt/cluster/programs/g16-c.01/g16/l101.exe)
 --------------
 Gaussian input
 --------------
 Symbolic Z-matrix:
 Charge =  0 Multiplicity = 1
 O                     0.        0.11751   0. 
 H                     0.79736  -0.50079   0. 
 H                    -0.69879  -0.46385   0. 
 
 ITRead=  0  0  0
 MicOpt= -1 -1 -1
 NAtoms=      3 NQM=        3 NQMF=       0 NMMI=      0 NMMIF=      0
                NMic=       0 NMicF=      0.
                    Isotopes and Nuclear Properties:
 (Nuclear quadrupole moments (NQMom) in fm**2, nuclear magnetic moments (NMagM)
  in nuclear magnetons)

  Atom         1           2           3
 IAtWgt=          16           1           1
 AtmWgt=  15.9949146   1.0078250   1.0078250
 NucSpn=           0           1           1
 AtZEff=  -0.0000000  -0.0000000  -0.0000000
 NQMom=    0.0000000   0.0000000   0.0000000
 NMagM=    0.0000000   2.7928460   2.7928460
 AtZNuc=   8.0000000   1.0000000   1.0000000
 Leave Link  101 at Mon Feb 20 10:28:46 2023, MaxMem=   754974720 cpu:               1.2 elap:               0.6
 (Enter /opt/cluster/programs/g16-c.01/g16/l202.exe)
                          Input orientation:                          
 ---------------------------------------------------------------------
 Center     Atomic      Atomic             Coordinates (Angstroms)
 Number     Number       Type             X           Y           Z
 ---------------------------------------------------------------------
      1          8           0        0.000000    0.117510    0.000000
      2          1           0        0.797362   -0.500790    0.000000
      3          1           0       -0.698787   -0.463848    0.000000
 ---------------------------------------------------------------------
                    Distance matrix (angstroms):
                    1          2          3
     1  O    0.000000
     2  H    1.009000   0.000000
     3  H    0.909000   1.496605   0.000000
 Stoichiometry    H2O
 Framework group  CS[SG(H2O)]
 Deg. of freedom     3
 Full point group                 CS      NOp   2
 Largest Abelian subgroup         CS      NOp   2
 Largest concise Abelian subgroup C1      NOp   1
                         Standard orientation:                         
 ---------------------------------------------------------------------
 Center     Atomic      Atomic             Coordinates (Angstroms)
 Number     Number       Type             X           Y           Z
 ---------------------------------------------------------------------
      1          8           0       -0.000000    0.120370    0.000000
      2          1           0        0.744049   -0.561151    0.000000
      3          1           0       -0.744049   -0.401810   -0.000000
 ---------------------------------------------------------------------
 Rotational constants (GHZ):         800.0136636         441.2363589         284.3867952
 Leave Link  202 at Mon Feb 20 10:28:47 2023, MaxMem=   754974720 cpu:               0.3 elap:               0.1
 (Enter /opt/cluster/programs/g16-c.01/g16/l301.exe)
 Standard basis: Aug-CC-pVDZ (5D, 7F)
 Ernie: Thresh=  0.10000D-02 Tol=  0.10000D-05 Strict=F.
 Ernie:  2 primitive shells out of 39 were deleted.
 There are    32 symmetry adapted cartesian basis functions of A'  symmetry.
 There are    11 symmetry adapted cartesian basis functions of A"  symmetry.
 There are    30 symmetry adapted basis functions of A'  symmetry.
 There are    11 symmetry adapted basis functions of A"  symmetry.
    41 basis functions,    65 primitive gaussians,    43 cartesian basis functions
     5 alpha electrons        5 beta electrons
       nuclear repulsion energy         9.2064669573 Hartrees.
 IExCor=    0 DFT=F Ex=HF Corr=None ExCW=0 ScaHFX=  1.000000
 ScaDFX=  1.000000  1.000000  1.000000  1.000000 ScalE2=  1.000000  1.000000
 IRadAn=      5 IRanWt=     -1 IRanGd=            0 ICorTp=0 IEmpDi=  4
 NAtoms=    3 NActive=    3 NUniq=    3 SFac= 1.00D+00 NAtFMM=   60 NAOKFM=F Big=F
 Integral buffers will be    131072 words long.
 Raffenetti 1 integral format.
 Two-electron integral symmetry is turned on.
 Leave Link  301 at Mon Feb 20 10:28:47 2023, MaxMem=   754974720 cpu:               0.3 elap:               0.2
 (Enter /opt/cluster/programs/g16-c.01/g16/l302.exe)
 NPDir=0 NMtPBC=     1 NCelOv=     1 NCel=       1 NClECP=     1 NCelD=      1
         NCelK=      1 NCelE2=     1 NClLst=     1 CellRange=     0.0.
 One-electron integrals computed using PRISM.
 One-electron integral symmetry used in STVInt
 NBasis=    41 RedAO= T EigKep=  2.48D-03  NBF=    30    11
 NBsUse=    41 1.00D-06 EigRej= -1.00D+00 NBFU=    30    11
 Leave Link  302 at Mon Feb 20 10:28:47 2023, MaxMem=   754974720 cpu:               1.3 elap:               0.7
 (Enter /opt/cluster/programs/g16-c.01/g16/l303.exe)
 DipDrv:  MaxL=1.
 Leave Link  303 at Mon Feb 20 10:28:48 2023, MaxMem=   754974720 cpu:               0.5 elap:               0.3
 (Enter /opt/cluster/programs/g16-c.01/g16/l401.exe)
 ExpMin= 2.97D-02 ExpMax= 1.17D+04 ExpMxC= 4.01D+02 IAcc=3 IRadAn=         5 AccDes= 0.00D+00
 Harris functional with IExCor=  205 and IRadAn=       5 diagonalized for initial guess.
 HarFok:  IExCor=  205 AccDes= 0.00D+00 IRadAn=         5 IDoV= 1 UseB2=F ITyADJ=14
 ICtDFT=  3500011 ScaDFX=  1.000000  1.000000  1.000000  1.000000
 FoFCou: FMM=F IPFlag=           0 FMFlag=      100000 FMFlg1=           0
         NFxFlg=           0 DoJE=T BraDBF=F KetDBF=T FulRan=T
         wScrn=  0.000000 ICntrl=       500 IOpCl=  0 I1Cent=   200000004 NGrid=           0
         NMat0=    1 NMatS0=      1 NMatT0=    0 NMatD0=    1 NMtDS0=    0 NMtDT0=    0
 Petite list used in FoFCou.
 Harris En= -76.1207822933251    
 JPrj=0 DoOrth=F DoCkMO=F.
 Initial guess orbital symmetries:
       Occupied  (A') (A') (A') (A') (A")
       Virtual   (A') (A') (A') (A") (A') (A') (A') (A') (A") (A')
                 (A") (A') (A') (A') (A') (A') (A") (A') (A") (A')
                 (A") (A') (A') (A') (A") (A") (A') (A') (A') (A')
                 (A') (A") (A') (A") (A') (A')
 The electronic state of the initial guess is 1-A'.
 Leave Link  401 at Mon Feb 20 10:28:48 2023, MaxMem=   754974720 cpu:               1.5 elap:               0.8
 (Enter /opt/cluster/programs/g16-c.01/g16/l502.exe)
 Keep R1 ints in memory in symmetry-blocked form, NReq=1210682.
 FoFCou: FMM=F IPFlag=           0 FMFlag=           0 FMFlg1=           0
         NFxFlg=           0 DoJE=F BraDBF=F KetDBF=F FulRan=T
         wScrn=  0.000000 ICntrl=       600 IOpCl=  0 I1Cent=           0 NGrid=           0
         NMat0=    1 NMatS0=    861 NMatT0=    0 NMatD0=    1 NMtDS0=    0 NMtDT0=    0
 Petite list used in FoFCou.
 Closed shell SCF:
 Using DIIS extrapolation, IDIIS=  1040.
 NGot=   754974720 LenX=   754771907 LenY=   754769617
 Requested convergence on RMS density matrix=1.00D-08 within 200 cycles.
 Requested convergence on MAX density matrix=1.00D-06.
 Requested convergence on             energy=1.00D-06.
 No special actions if energy rises.

 Cycle   1  Pass 1  IDiag  1:
 E= -75.9583067234819    
 DIIS: error= 5.10D-02 at cycle   1 NSaved=   1.
 NSaved= 1 IEnMin= 1 EnMin= -75.9583067234819     IErMin= 1 ErrMin= 5.10D-02
 ErrMax= 5.10D-02  0.00D+00 EMaxC= 1.00D-01 BMatC= 1.18D-01 BMatP= 1.18D-01
 IDIUse=3 WtCom= 4.90D-01 WtEn= 5.10D-01
 Coeff-Com:  0.100D+01
 Coeff-En:   0.100D+01
 Coeff:      0.100D+01
 Gap=     0.459 Goal=   None    Shift=    0.000
 GapD=    0.459 DampG=2.000 DampE=0.500 DampFc=1.0000 IDamp=-1.
 RMSDP=6.34D-03 MaxDP=1.18D-01              OVMax= 1.20D-01

 Cycle   2  Pass 1  IDiag  1:
 E= -76.0033607448260     Delta-E=       -0.045054021344 Rises=F Damp=F
 DIIS: error= 4.02D-02 at cycle   2 NSaved=   2.
 NSaved= 2 IEnMin= 2 EnMin= -76.0033607448260     IErMin= 2 ErrMin= 4.02D-02
 ErrMax= 4.02D-02  0.00D+00 EMaxC= 1.00D-01 BMatC= 4.62D-02 BMatP= 1.18D-01
 IDIUse=3 WtCom= 5.98D-01 WtEn= 4.02D-01
 Coeff-Com:  0.374D+00 0.626D+00
 Coeff-En:   0.211D+00 0.789D+00
 Coeff:      0.309D+00 0.691D+00
 Gap=     0.562 Goal=   None    Shift=    0.000
 RMSDP=2.97D-03 MaxDP=5.48D-02 DE=-4.51D-02 OVMax= 5.93D-02

 Cycle   3  Pass 1  IDiag  1:
 E= -76.0350692472917     Delta-E=       -0.031708502466 Rises=F Damp=F
 DIIS: error= 4.68D-03 at cycle   3 NSaved=   3.
 NSaved= 3 IEnMin= 3 EnMin= -76.0350692472917     IErMin= 3 ErrMin= 4.68D-03
 ErrMax= 4.68D-03  0.00D+00 EMaxC= 1.00D-01 BMatC= 1.17D-03 BMatP= 4.62D-02
 IDIUse=3 WtCom= 9.53D-01 WtEn= 4.68D-02
 Coeff-Com: -0.382D-01 0.923D-01 0.946D+00
 Coeff-En:   0.000D+00 0.000D+00 0.100D+01
 Coeff:     -0.364D-01 0.880D-01 0.948D+00
 Gap=     0.544 Goal=   None    Shift=    0.000
 RMSDP=4.75D-04 MaxDP=8.20D-03 DE=-3.17D-02 OVMax= 9.33D-03

 Cycle   4  Pass 1  IDiag  1:
 E= -76.0359624950556     Delta-E=       -0.000893247764 Rises=F Damp=F
 DIIS: error= 6.58D-04 at cycle   4 NSaved=   4.
 NSaved= 4 IEnMin= 4 EnMin= -76.0359624950556     IErMin= 4 ErrMin= 6.58D-04
 ErrMax= 6.58D-04  0.00D+00 EMaxC= 1.00D-01 BMatC= 7.90D-06 BMatP= 1.17D-03
 IDIUse=3 WtCom= 9.93D-01 WtEn= 6.58D-03
 Coeff-Com:  0.938D-02-0.443D-01-0.339D+00 0.137D+01
 Coeff-En:   0.000D+00 0.000D+00 0.000D+00 0.100D+01
 Coeff:      0.931D-02-0.440D-01-0.337D+00 0.137D+01
 Gap=     0.545 Goal=   None    Shift=    0.000
 RMSDP=1.16D-04 MaxDP=1.19D-03 DE=-8.93D-04 OVMax= 2.31D-03

 Cycle   5  Pass 1  IDiag  1:
 E= -76.0359821659134     Delta-E=       -0.000019670858 Rises=F Damp=F
 DIIS: error= 1.74D-04 at cycle   5 NSaved=   5.
 NSaved= 5 IEnMin= 5 EnMin= -76.0359821659134     IErMin= 5 ErrMin= 1.74D-04
 ErrMax= 1.74D-04  0.00D+00 EMaxC= 1.00D-01 BMatC= 3.38D-07 BMatP= 7.90D-06
 IDIUse=3 WtCom= 9.98D-01 WtEn= 1.74D-03
 Coeff-Com: -0.254D-03 0.425D-02 0.298D-01-0.294D+00 0.126D+01
 Coeff-En:   0.000D+00 0.000D+00 0.000D+00 0.000D+00 0.100D+01
 Coeff:     -0.253D-03 0.424D-02 0.298D-01-0.293D+00 0.126D+01
 Gap=     0.545 Goal=   None    Shift=    0.000
 RMSDP=2.66D-05 MaxDP=3.88D-04 DE=-1.97D-05 OVMax= 5.62D-04

 Cycle   6  Pass 1  IDiag  1:
 E= -76.0359831711304     Delta-E=       -0.000001005217 Rises=F Damp=F
 DIIS: error= 3.23D-05 at cycle   6 NSaved=   6.
 NSaved= 6 IEnMin= 6 EnMin= -76.0359831711304     IErMin= 6 ErrMin= 3.23D-05
 ErrMax= 3.23D-05  0.00D+00 EMaxC= 1.00D-01 BMatC= 1.29D-08 BMatP= 3.38D-07
 IDIUse=1 WtCom= 1.00D+00 WtEn= 0.00D+00
 Coeff-Com: -0.383D-03 0.145D-02 0.113D-01-0.228D-01-0.206D+00 0.122D+01
 Coeff:     -0.383D-03 0.145D-02 0.113D-01-0.228D-01-0.206D+00 0.122D+01
 Gap=     0.545 Goal=   None    Shift=    0.000
 RMSDP=4.82D-06 MaxDP=8.95D-05 DE=-1.01D-06 OVMax= 1.20D-04

 Cycle   7  Pass 1  IDiag  1:
 E= -76.0359832107704     Delta-E=       -0.000000039640 Rises=F Damp=F
 DIIS: error= 6.35D-06 at cycle   7 NSaved=   7.
 NSaved= 7 IEnMin= 7 EnMin= -76.0359832107704     IErMin= 7 ErrMin= 6.35D-06
 ErrMax= 6.35D-06  0.00D+00 EMaxC= 1.00D-01 BMatC= 6.51D-10 BMatP= 1.29D-08
 IDIUse=1 WtCom= 1.00D+00 WtEn= 0.00D+00
 Coeff-Com:  0.137D-03-0.685D-03-0.545D-02 0.246D-01-0.581D-02-0.339D+00
 Coeff-Com:  0.133D+01
 Coeff:      0.137D-03-0.685D-03-0.545D-02 0.246D-01-0.581D-02-0.339D+00
 Coeff:      0.133D+01
 Gap=     0.545 Goal=   None    Shift=    0.000
 RMSDP=9.63D-07 MaxDP=1.71D-05 DE=-3.96D-08 OVMax= 2.65D-05

 Cycle   8  Pass 1  IDiag  1:
 E= -76.0359832123960     Delta-E=       -0.000000001626 Rises=F Damp=F
 DIIS: error= 7.37D-07 at cycle   8 NSaved=   8.
 NSaved= 8 IEnMin= 8 EnMin= -76.0359832123960     IErMin= 8 ErrMin= 7.37D-07
 ErrMax= 7.37D-07  0.00D+00 EMaxC= 1.00D-01 BMatC= 1.78D-11 BMatP= 6.51D-10
 IDIUse=1 WtCom= 1.00D+00 WtEn= 0.00D+00
 Coeff-Com: -0.183D-04 0.106D-03 0.903D-03-0.522D-02 0.853D-02 0.447D-01
 Coeff-Com: -0.346D+00 0.130D+01
 Coeff:     -0.183D-04 0.106D-03 0.903D-03-0.522D-02 0.853D-02 0.447D-01
 Coeff:     -0.346D+00 0.130D+01
 Gap=     0.545 Goal=   None    Shift=    0.000
 RMSDP=2.03D-07 MaxDP=2.68D-06 DE=-1.63D-09 OVMax= 4.01D-06

 Cycle   9  Pass 1  IDiag  1:
 E= -76.0359832124413     Delta-E=       -0.000000000045 Rises=F Damp=F
 DIIS: error= 1.26D-07 at cycle   9 NSaved=   9.
 NSaved= 9 IEnMin= 9 EnMin= -76.0359832124413     IErMin= 9 ErrMin= 1.26D-07
 ErrMax= 1.26D-07  0.00D+00 EMaxC= 1.00D-01 BMatC= 4.50D-13 BMatP= 1.78D-11
 IDIUse=1 WtCom= 1.00D+00 WtEn= 0.00D+00
 Coeff-Com: -0.360D-05 0.173D-04 0.127D-03-0.451D-03-0.612D-03 0.825D-02
 Coeff-Com: -0.126D-01-0.124D+00 0.113D+01
 Coeff:     -0.360D-05 0.173D-04 0.127D-03-0.451D-03-0.612D-03 0.825D-02
 Coeff:     -0.126D-01-0.124D+00 0.113D+01
 Gap=     0.545 Goal=   None    Shift=    0.000
 RMSDP=3.34D-08 MaxDP=3.49D-07 DE=-4.53D-11 OVMax= 5.37D-07

 Cycle  10  Pass 1  IDiag  1:
 E= -76.0359832124423     Delta-E=       -0.000000000001 Rises=F Damp=F
 DIIS: error= 2.86D-08 at cycle  10 NSaved=  10.
 NSaved=10 IEnMin=10 EnMin= -76.0359832124423     IErMin=10 ErrMin= 2.86D-08
 ErrMax= 2.86D-08  0.00D+00 EMaxC= 1.00D-01 BMatC= 2.87D-14 BMatP= 4.50D-13
 IDIUse=1 WtCom= 1.00D+00 WtEn= 0.00D+00
 Coeff-Com:  0.149D-05-0.794D-05-0.625D-04 0.297D-03-0.128D-03-0.371D-02
 Coeff-Com:  0.166D-01-0.219D-01-0.323D+00 0.133D+01
 Coeff:      0.149D-05-0.794D-05-0.625D-04 0.297D-03-0.128D-03-0.371D-02
 Coeff:      0.166D-01-0.219D-01-0.323D+00 0.133D+01
 Gap=     0.545 Goal=   None    Shift=    0.000
 RMSDP=9.34D-09 MaxDP=9.57D-08 DE=-1.05D-12 OVMax= 1.81D-07

 SCF Done:  E(RHF) =  -76.0359832124     A.U. after   10 cycles
            NFock= 10  Conv=0.93D-08     -V/T= 2.0012
 KE= 7.594160027883D+01 PE=-1.989238403589D+02 EE= 3.773978991031D+01
 Leave Link  502 at Mon Feb 20 10:28:49 2023, MaxMem=   754974720 cpu:               2.8 elap:               1.1
 (Enter /opt/cluster/programs/g16-c.01/g16/l601.exe)
 Copying SCF densities to generalized density rwf, IOpCl= 0 IROHF=0.

 **********************************************************************

            Population analysis using the SCF Density.

 **********************************************************************

 Orbital symmetries:
       Occupied  (A') (A') (A') (A') (A")
       Virtual   (A') (A') (A') (A") (A') (A') (A') (A') (A") (A')
                 (A") (A') (A') (A') (A') (A') (A") (A') (A") (A')
                 (A') (A") (A') (A") (A') (A") (A') (A') (A') (A')
                 (A') (A") (A') (A") (A') (A')
 The electronic state is 1-A'.
 Alpha  occ. eigenvalues --  -20.57796  -1.35968  -0.71512  -0.58847  -0.51011
 Alpha virt. eigenvalues --    0.03508   0.05812   0.17342   0.19684   0.22130
 Alpha virt. eigenvalues --    0.23222   0.28755   0.33628   0.38587   0.40054
 Alpha virt. eigenvalues --    0.43182   0.54122   0.63844   0.66365   0.80732
 Alpha virt. eigenvalues --    0.94145   1.10283   1.11836   1.14800   1.29835
 Alpha virt. eigenvalues --    1.45460   1.48068   1.59845   1.99869   2.00747
 Alpha virt. eigenvalues --    2.12504   2.34701   2.42761   2.64151   2.75443
 Alpha virt. eigenvalues --    2.98556   3.67125   3.69504   3.70667   3.99192
 Alpha virt. eigenvalues --    4.33977
          Condensed to atoms (all electrons):
               1          2          3
     1  O    7.624052   0.320463   0.350486
     2  H    0.320463   0.509582  -0.032617
     3  H    0.350486  -0.032617   0.589702
 Mulliken charges:
               1
     1  O   -0.295001
     2  H    0.202572
     3  H    0.092429
 Sum of Mulliken charges =   0.00000
 Mulliken charges with hydrogens summed into heavy atoms:
               1
     1  O    0.000000
 Electronic spatial extent (au):  <R**2>=             19.5576
 Charge=              0.0000 electrons
 Dipole moment (field-independent basis, Debye):
    X=             -0.0490    Y=             -2.0350    Z=              0.0000  Tot=              2.0356
 Quadrupole moment (field-independent basis, Debye-Ang):
   XX=             -4.3849   YY=             -6.1712   ZZ=             -7.5867
   XY=             -0.2629   XZ=              0.0000   YZ=             -0.0000
 Traceless Quadrupole moment (field-independent basis, Debye-Ang):
   XX=              1.6627   YY=             -0.1236   ZZ=             -1.5391
   XY=             -0.2629   XZ=              0.0000   YZ=             -0.0000
 Octapole moment (field-independent basis, Debye-Ang**2):
  XXX=             -0.1451  YYY=             -1.2641  ZZZ=              0.0000  XYY=              0.1875
  XXY=             -1.3747  XXZ=             -0.0000  XZZ=             -0.0619  YZZ=             -0.2941
  YYZ=              0.0000  XYZ=             -0.0000
 Hexadecapole moment (field-independent basis, Debye-Ang**3):
 XXXX=             -6.0862 YYYY=             -7.3554 ZZZZ=             -6.8026 XXXY=              0.0106
 XXXZ=             -0.0000 YYYX=             -0.0113 YYYZ=             -0.0000 ZZZX=             -0.0000
 ZZZY=              0.0000 XXYY=             -1.8745 XXZZ=             -2.4414 YYZZ=             -2.4235
 XXYZ=             -0.0000 YYXZ=             -0.0000 ZZXY=              0.0694
 N-N= 9.206466957289D+00 E-N=-1.989238400387D+02  KE= 7.594160027883D+01
 Symmetry A'   KE= 7.149253253491D+01
 Symmetry A"   KE= 4.449067743919D+00
 No NMR shielding tensors so no spin-rotation constants.
 Leave Link  601 at Mon Feb 20 10:28:50 2023, MaxMem=   754974720 cpu:               1.3 elap:               0.6
 (Enter /opt/cluster/programs/g16-c.01/g16/l9999.exe)
 Unable to Open any file for archive entry.
 1\1\GINC-NODE105\SP\RHF\Aug-CC-pVDZ\H2O1\BOITTIER\20-Feb-2023\0\\#P HF
 /aug-cc-pVDZ scf(maxcycle=200)\\Gaussian input\\0,1\O,0,0.,0.11751,0.\
 H,0,0.7973622306,-0.5007896629,0.\H,0,-0.6987871447,-0.4638483459,0.\\
 Version=ES64L-G16RevC.01\State=1-A'\HF=-76.0359832\RMSD=9.336e-09\Dipo
 le=0.0463388,-0.7995057,0.\Quadrupole=1.2591835,-0.1149109,-1.1442725,
 -0.0844493,0.,0.\PG=CS [SG(H2O1)]\\@
 The archive entry for this job was punched.


 This summer one third of the nation will be ill-housed
 ill-nourished and ill-clad. Only they call it a vacation.
 -- Jonas Salk
 Job cpu time:       0 days  0 hours  0 minutes  9.6 seconds.
 Elapsed time:       0 days  0 hours  0 minutes  4.5 seconds.
 File lengths (MBytes):  RWF=      6 Int=      0 D2E=      0 Chk=      1 Scr=      1
 Normal termination of Gaussian 16 at Mon Feb 20 10:28:50 2023.
