 Entering Gaussian System, Link 0=/opt/cluster/programs/g16-c.01/g16/g16
 Input=/scratch/boittier/jobs/tmp.7262170/gaussian_37_water_ccsdt_adz.com
 Output=/scratch/boittier/jobs/tmp.7262170/gaussian_37_water_ccsdt_adz.out
 Initial command:
 /opt/cluster/programs/g16-c.01/g16/l1.exe "/scratch/boittier/jobs/tmp.7262170/Gau-153486.inp" -scrdir="/scratch/boittier/jobs/tmp.7262170/"
 Entering Link 1 = /opt/cluster/programs/g16-c.01/g16/l1.exe PID=    153487.
  
 Copyright (c) 1988-2019, Gaussian, Inc.  All Rights Reserved.
  
 This is part of the Gaussian(R) 16 program.  It is based on
 the Gaussian(R) 09 system (copyright 2009, Gaussian, Inc.),
 the Gaussian(R) 03 system (copyright 2003, Gaussian, Inc.),
 the Gaussian(R) 98 system (copyright 1998, Gaussian, Inc.),
 the Gaussian(R) 94 system (copyright 1995, Gaussian, Inc.),
 the Gaussian 92(TM) system (copyright 1992, Gaussian, Inc.),
 the Gaussian 90(TM) system (copyright 1990, Gaussian, Inc.),
 the Gaussian 88(TM) system (copyright 1988, Gaussian, Inc.),
 the Gaussian 86(TM) system (copyright 1986, Carnegie Mellon
 University), and the Gaussian 82(TM) system (copyright 1983,
 Carnegie Mellon University). Gaussian is a federally registered
 trademark of Gaussian, Inc.
  
 This software contains proprietary and confidential information,
 including trade secrets, belonging to Gaussian, Inc.
  
 This software is provided under written license and may be
 used, copied, transmitted, or stored only in accord with that
 written license.
  
 The following legend is applicable only to US Government
 contracts under FAR:
  
                    RESTRICTED RIGHTS LEGEND
  
 Use, reproduction and disclosure by the US Government is
 subject to restrictions as set forth in subparagraphs (a)
 and (c) of the Commercial Computer Software - Restricted
 Rights clause in FAR 52.227-19.
  
 Gaussian, Inc.
 340 Quinnipiac St., Bldg. 40, Wallingford CT 06492
  
  
 ---------------------------------------------------------------
 Warning -- This program may not be used in any manner that
 competes with the business of Gaussian, Inc. or will provide
 assistance to any competitor of Gaussian, Inc.  The licensee
 of this program is prohibited from giving any competitor of
 Gaussian, Inc. access to this program.  By using this program,
 the user acknowledges that Gaussian, Inc. is engaged in the
 business of creating and licensing software in the field of
 computational chemistry and represents and warrants to the
 licensee that it is not a competitor of Gaussian, Inc. and that
 it will not use this program in any manner prohibited above.
 ---------------------------------------------------------------
  

 Cite this work as:
 Gaussian 16, Revision C.01,
 M. J. Frisch, G. W. Trucks, H. B. Schlegel, G. E. Scuseria, 
 M. A. Robb, J. R. Cheeseman, G. Scalmani, V. Barone, 
 G. A. Petersson, H. Nakatsuji, X. Li, M. Caricato, A. V. Marenich, 
 J. Bloino, B. G. Janesko, R. Gomperts, B. Mennucci, H. P. Hratchian, 
 J. V. Ortiz, A. F. Izmaylov, J. L. Sonnenberg, D. Williams-Young, 
 F. Ding, F. Lipparini, F. Egidi, J. Goings, B. Peng, A. Petrone, 
 T. Henderson, D. Ranasinghe, V. G. Zakrzewski, J. Gao, N. Rega, 
 G. Zheng, W. Liang, M. Hada, M. Ehara, K. Toyota, R. Fukuda, 
 J. Hasegawa, M. Ishida, T. Nakajima, Y. Honda, O. Kitao, H. Nakai, 
 T. Vreven, K. Throssell, J. A. Montgomery, Jr., J. E. Peralta, 
 F. Ogliaro, M. J. Bearpark, J. J. Heyd, E. N. Brothers, K. N. Kudin, 
 V. N. Staroverov, T. A. Keith, R. Kobayashi, J. Normand, 
 K. Raghavachari, A. P. Rendell, J. C. Burant, S. S. Iyengar, 
 J. Tomasi, M. Cossi, J. M. Millam, M. Klene, C. Adamo, R. Cammi, 
 J. W. Ochterski, R. L. Martin, K. Morokuma, O. Farkas, 
 J. B. Foresman, and D. J. Fox, Gaussian, Inc., Wallingford CT, 2019.
 
 ******************************************
 Gaussian 16:  ES64L-G16RevC.01  3-Jul-2019
                 8-Feb-2023 
 ******************************************
 %nproc=4
 Will use up to    4 processors via shared memory.
 %mem=5760MB
 %chk=gaussian_37_water_ccsdt_adz.chk
 ----------------------------------------
 #P CCSD(T)/aug-cc-pVDZ scf(maxcycle=200)
 ----------------------------------------
 1/38=1,172=1/1;
 2/12=2,17=6,18=5,40=1/2;
 3/5=16,7=10,11=9,25=1,30=1/1,2,3;
 4//1;
 5/5=2,7=200,38=5/2;
 8/6=4,9=120000,10=1/1,4;
 9/5=7,14=2/13;
 6/7=2,8=2,9=2,10=2/1;
 99/5=1,9=1/99;
 Leave Link    1 at Wed Feb  8 14:47:41 2023, MaxMem=   754974720 cpu:               0.1 elap:               0.0
 (Enter /opt/cluster/programs/g16-c.01/g16/l101.exe)
 --------------
 Gaussian input
 --------------
 Symbolic Z-matrix:
 Charge =  0 Multiplicity = 1
 O                     0.        0.11751   0. 
 H                     0.71834  -0.43951   0. 
 H                    -0.87772  -0.26886   0. 
 
 ITRead=  0  0  0
 MicOpt= -1 -1 -1
 NAtoms=      3 NQM=        3 NQMF=       0 NMMI=      0 NMMIF=      0
                NMic=       0 NMicF=      0.
                    Isotopes and Nuclear Properties:
 (Nuclear quadrupole moments (NQMom) in fm**2, nuclear magnetic moments (NMagM)
  in nuclear magnetons)

  Atom         1           2           3
 IAtWgt=          16           1           1
 AtmWgt=  15.9949146   1.0078250   1.0078250
 NucSpn=           0           1           1
 AtZEff=  -0.0000000  -0.0000000  -0.0000000
 NQMom=    0.0000000   0.0000000   0.0000000
 NMagM=    0.0000000   2.7928460   2.7928460
 AtZNuc=   8.0000000   1.0000000   1.0000000
 Leave Link  101 at Wed Feb  8 14:47:41 2023, MaxMem=   754974720 cpu:               0.8 elap:               0.2
 (Enter /opt/cluster/programs/g16-c.01/g16/l202.exe)
                          Input orientation:                          
 ---------------------------------------------------------------------
 Center     Atomic      Atomic             Coordinates (Angstroms)
 Number     Number       Type             X           Y           Z
 ---------------------------------------------------------------------
      1          8           0        0.000000    0.117510    0.000000
      2          1           0        0.718337   -0.439511    0.000000
      3          1           0       -0.877724   -0.268860    0.000000
 ---------------------------------------------------------------------
                    Distance matrix (angstroms):
                    1          2          3
     1  O    0.000000
     2  H    0.909000   0.000000
     3  H    0.959000   1.605158   0.000000
 Stoichiometry    H2O
 Framework group  CS[SG(H2O)]
 Deg. of freedom     3
 Full point group                 CS      NOp   2
 Largest Abelian subgroup         CS      NOp   2
 Largest concise Abelian subgroup C1      NOp   1
                         Standard orientation:                         
 ---------------------------------------------------------------------
 Center     Atomic      Atomic             Coordinates (Angstroms)
 Number     Number       Type             X           Y           Z
 ---------------------------------------------------------------------
      1          8           0        0.000000    0.095676    0.000000
      2          1           0        0.801093   -0.333894    0.000000
      3          1           0       -0.801093   -0.431515    0.000000
 ---------------------------------------------------------------------
 Rotational constants (GHZ):        1240.3607435         388.5871076         295.8892719
 Leave Link  202 at Wed Feb  8 14:47:42 2023, MaxMem=   754974720 cpu:               0.1 elap:               0.0
 (Enter /opt/cluster/programs/g16-c.01/g16/l301.exe)
 Standard basis: Aug-CC-pVDZ (5D, 7F)
 Ernie: Thresh=  0.10000D-02 Tol=  0.10000D-05 Strict=F.
 Ernie:  2 primitive shells out of 39 were deleted.
 There are    32 symmetry adapted cartesian basis functions of A'  symmetry.
 There are    11 symmetry adapted cartesian basis functions of A"  symmetry.
 There are    30 symmetry adapted basis functions of A'  symmetry.
 There are    11 symmetry adapted basis functions of A"  symmetry.
    41 basis functions,    65 primitive gaussians,    43 cartesian basis functions
     5 alpha electrons        5 beta electrons
       nuclear repulsion energy         9.4013065494 Hartrees.
 IExCor=    0 DFT=F Ex=HF Corr=None ExCW=0 ScaHFX=  1.000000
 ScaDFX=  1.000000  1.000000  1.000000  1.000000 ScalE2=  1.000000  1.000000
 IRadAn=      5 IRanWt=     -1 IRanGd=            0 ICorTp=0 IEmpDi=  4
 NAtoms=    3 NActive=    3 NUniq=    3 SFac= 1.00D+00 NAtFMM=   60 NAOKFM=F Big=F
 Integral buffers will be    131072 words long.
 Raffenetti 1 integral format.
 Two-electron integral symmetry is turned on.
 Leave Link  301 at Wed Feb  8 14:47:42 2023, MaxMem=   754974720 cpu:               0.1 elap:               0.0
 (Enter /opt/cluster/programs/g16-c.01/g16/l302.exe)
 NPDir=0 NMtPBC=     1 NCelOv=     1 NCel=       1 NClECP=     1 NCelD=      1
         NCelK=      1 NCelE2=     1 NClLst=     1 CellRange=     0.0.
 One-electron integrals computed using PRISM.
 One-electron integral symmetry used in STVInt
 NBasis=    41 RedAO= T EigKep=  2.74D-03  NBF=    30    11
 NBsUse=    41 1.00D-06 EigRej= -1.00D+00 NBFU=    30    11
 Leave Link  302 at Wed Feb  8 14:47:42 2023, MaxMem=   754974720 cpu:               0.4 elap:               0.1
 (Enter /opt/cluster/programs/g16-c.01/g16/l303.exe)
 DipDrv:  MaxL=1.
 Leave Link  303 at Wed Feb  8 14:47:42 2023, MaxMem=   754974720 cpu:               0.2 elap:               0.1
 (Enter /opt/cluster/programs/g16-c.01/g16/l401.exe)
 ExpMin= 2.97D-02 ExpMax= 1.17D+04 ExpMxC= 4.01D+02 IAcc=3 IRadAn=         5 AccDes= 0.00D+00
 Harris functional with IExCor=  205 and IRadAn=       5 diagonalized for initial guess.
 HarFok:  IExCor=  205 AccDes= 0.00D+00 IRadAn=         5 IDoV= 1 UseB2=F ITyADJ=14
 ICtDFT=  3500011 ScaDFX=  1.000000  1.000000  1.000000  1.000000
 FoFCou: FMM=F IPFlag=           0 FMFlag=      100000 FMFlg1=           0
         NFxFlg=           0 DoJE=T BraDBF=F KetDBF=T FulRan=T
         wScrn=  0.000000 ICntrl=       500 IOpCl=  0 I1Cent=   200000004 NGrid=           0
         NMat0=    1 NMatS0=      1 NMatT0=    0 NMatD0=    1 NMtDS0=    0 NMtDT0=    0
 Petite list used in FoFCou.
 Harris En= -76.1229779515775    
 JPrj=0 DoOrth=F DoCkMO=F.
 Initial guess orbital symmetries:
       Occupied  (A') (A') (A') (A') (A")
       Virtual   (A') (A') (A') (A") (A') (A') (A') (A') (A") (A')
                 (A") (A') (A') (A') (A') (A') (A") (A') (A") (A')
                 (A") (A') (A') (A') (A") (A") (A') (A') (A') (A')
                 (A') (A") (A') (A") (A') (A')
 The electronic state of the initial guess is 1-A'.
 Leave Link  401 at Wed Feb  8 14:47:42 2023, MaxMem=   754974720 cpu:               0.6 elap:               0.2
 (Enter /opt/cluster/programs/g16-c.01/g16/l502.exe)
 Keep R1 ints in memory in symmetry-blocked form, NReq=1210696.
 FoFCou: FMM=F IPFlag=           0 FMFlag=           0 FMFlg1=           0
         NFxFlg=           0 DoJE=F BraDBF=F KetDBF=F FulRan=T
         wScrn=  0.000000 ICntrl=       600 IOpCl=  0 I1Cent=           0 NGrid=           0
         NMat0=    1 NMatS0=    861 NMatT0=    0 NMatD0=    1 NMtDS0=    0 NMtDT0=    0
 Petite list used in FoFCou.
 Closed shell SCF:
 Using DIIS extrapolation, IDIIS=  1040.
 NGot=   754974720 LenX=   754771907 LenY=   754769617
 Requested convergence on RMS density matrix=1.00D-08 within 200 cycles.
 Requested convergence on MAX density matrix=1.00D-06.
 Requested convergence on             energy=1.00D-06.
 No special actions if energy rises.

 Cycle   1  Pass 1  IDiag  1:
 E= -75.9556740316883    
 DIIS: error= 5.29D-02 at cycle   1 NSaved=   1.
 NSaved= 1 IEnMin= 1 EnMin= -75.9556740316883     IErMin= 1 ErrMin= 5.29D-02
 ErrMax= 5.29D-02  0.00D+00 EMaxC= 1.00D-01 BMatC= 1.25D-01 BMatP= 1.25D-01
 IDIUse=3 WtCom= 4.71D-01 WtEn= 5.29D-01
 Coeff-Com:  0.100D+01
 Coeff-En:   0.100D+01
 Coeff:      0.100D+01
 Gap=     0.454 Goal=   None    Shift=    0.000
 GapD=    0.454 DampG=2.000 DampE=0.500 DampFc=1.0000 IDamp=-1.
 RMSDP=6.45D-03 MaxDP=1.23D-01              OVMax= 1.21D-01

 Cycle   2  Pass 1  IDiag  1:
 E= -76.0043765583401     Delta-E=       -0.048702526652 Rises=F Damp=F
 DIIS: error= 3.93D-02 at cycle   2 NSaved=   2.
 NSaved= 2 IEnMin= 2 EnMin= -76.0043765583401     IErMin= 2 ErrMin= 3.93D-02
 ErrMax= 3.93D-02  0.00D+00 EMaxC= 1.00D-01 BMatC= 4.60D-02 BMatP= 1.25D-01
 IDIUse=3 WtCom= 6.07D-01 WtEn= 3.93D-01
 Coeff-Com:  0.368D+00 0.632D+00
 Coeff-En:   0.190D+00 0.810D+00
 Coeff:      0.298D+00 0.702D+00
 Gap=     0.563 Goal=   None    Shift=    0.000
 RMSDP=2.93D-03 MaxDP=5.49D-02 DE=-4.87D-02 OVMax= 5.91D-02

 Cycle   3  Pass 1  IDiag  1:
 E= -76.0355846956889     Delta-E=       -0.031208137349 Rises=F Damp=F
 DIIS: error= 5.05D-03 at cycle   3 NSaved=   3.
 NSaved= 3 IEnMin= 3 EnMin= -76.0355846956889     IErMin= 3 ErrMin= 5.05D-03
 ErrMax= 5.05D-03  0.00D+00 EMaxC= 1.00D-01 BMatC= 1.23D-03 BMatP= 4.60D-02
 IDIUse=3 WtCom= 9.50D-01 WtEn= 5.05D-02
 Coeff-Com: -0.362D-01 0.969D-01 0.939D+00
 Coeff-En:   0.000D+00 0.000D+00 0.100D+01
 Coeff:     -0.344D-01 0.920D-01 0.942D+00
 Gap=     0.543 Goal=   None    Shift=    0.000
 RMSDP=4.80D-04 MaxDP=8.28D-03 DE=-3.12D-02 OVMax= 8.73D-03

 Cycle   4  Pass 1  IDiag  1:
 E= -76.0364836312982     Delta-E=       -0.000898935609 Rises=F Damp=F
 DIIS: error= 5.11D-04 at cycle   4 NSaved=   4.
 NSaved= 4 IEnMin= 4 EnMin= -76.0364836312982     IErMin= 4 ErrMin= 5.11D-04
 ErrMax= 5.11D-04  0.00D+00 EMaxC= 1.00D-01 BMatC= 6.27D-06 BMatP= 1.23D-03
 IDIUse=3 WtCom= 9.95D-01 WtEn= 5.11D-03
 Coeff-Com:  0.852D-02-0.432D-01-0.319D+00 0.135D+01
 Coeff-En:   0.000D+00 0.000D+00 0.000D+00 0.100D+01
 Coeff:      0.848D-02-0.430D-01-0.317D+00 0.135D+01
 Gap=     0.544 Goal=   None    Shift=    0.000
 RMSDP=1.08D-04 MaxDP=9.89D-04 DE=-8.99D-04 OVMax= 2.25D-03

 Cycle   5  Pass 1  IDiag  1:
 E= -76.0364988349199     Delta-E=       -0.000015203622 Rises=F Damp=F
 DIIS: error= 1.37D-04 at cycle   5 NSaved=   5.
 NSaved= 5 IEnMin= 5 EnMin= -76.0364988349199     IErMin= 5 ErrMin= 1.37D-04
 ErrMax= 1.37D-04  0.00D+00 EMaxC= 1.00D-01 BMatC= 2.66D-07 BMatP= 6.27D-06
 IDIUse=3 WtCom= 9.99D-01 WtEn= 1.37D-03
 Coeff-Com: -0.221D-03 0.401D-02 0.269D-01-0.293D+00 0.126D+01
 Coeff-En:   0.000D+00 0.000D+00 0.000D+00 0.000D+00 0.100D+01
 Coeff:     -0.220D-03 0.401D-02 0.269D-01-0.293D+00 0.126D+01
 Gap=     0.544 Goal=   None    Shift=    0.000
 RMSDP=2.61D-05 MaxDP=3.05D-04 DE=-1.52D-05 OVMax= 6.07D-04

 Cycle   6  Pass 1  IDiag  1:
 E= -76.0364996595336     Delta-E=       -0.000000824614 Rises=F Damp=F
 DIIS: error= 2.62D-05 at cycle   6 NSaved=   6.
 NSaved= 6 IEnMin= 6 EnMin= -76.0364996595336     IErMin= 6 ErrMin= 2.62D-05
 ErrMax= 2.62D-05  0.00D+00 EMaxC= 1.00D-01 BMatC= 1.01D-08 BMatP= 2.66D-07
 IDIUse=1 WtCom= 1.00D+00 WtEn= 0.00D+00
 Coeff-Com: -0.334D-03 0.134D-02 0.103D-01-0.204D-01-0.204D+00 0.121D+01
 Coeff:     -0.334D-03 0.134D-02 0.103D-01-0.204D-01-0.204D+00 0.121D+01
 Gap=     0.544 Goal=   None    Shift=    0.000
 RMSDP=4.49D-06 MaxDP=7.33D-05 DE=-8.25D-07 OVMax= 1.30D-04

 Cycle   7  Pass 1  IDiag  1:
 E= -76.0364996923324     Delta-E=       -0.000000032799 Rises=F Damp=F
 DIIS: error= 6.61D-06 at cycle   7 NSaved=   7.
 NSaved= 7 IEnMin= 7 EnMin= -76.0364996923324     IErMin= 7 ErrMin= 6.61D-06
 ErrMax= 6.61D-06  0.00D+00 EMaxC= 1.00D-01 BMatC= 5.64D-10 BMatP= 1.01D-08
 IDIUse=1 WtCom= 1.00D+00 WtEn= 0.00D+00
 Coeff-Com:  0.134D-03-0.706D-03-0.539D-02 0.245D-01 0.621D-02-0.416D+00
 Coeff-Com:  0.139D+01
 Coeff:      0.134D-03-0.706D-03-0.539D-02 0.245D-01 0.621D-02-0.416D+00
 Coeff:      0.139D+01
 Gap=     0.544 Goal=   None    Shift=    0.000
 RMSDP=9.37D-07 MaxDP=1.91D-05 DE=-3.28D-08 OVMax= 2.85D-05

 Cycle   8  Pass 1  IDiag  1:
 E= -76.0364996939056     Delta-E=       -0.000000001573 Rises=F Damp=F
 DIIS: error= 7.39D-07 at cycle   8 NSaved=   8.
 NSaved= 8 IEnMin= 8 EnMin= -76.0364996939056     IErMin= 8 ErrMin= 7.39D-07
 ErrMax= 7.39D-07  0.00D+00 EMaxC= 1.00D-01 BMatC= 1.49D-11 BMatP= 5.64D-10
 IDIUse=1 WtCom= 1.00D+00 WtEn= 0.00D+00
 Coeff-Com: -0.162D-04 0.992D-04 0.807D-03-0.490D-02 0.656D-02 0.540D-01
 Coeff-Com: -0.334D+00 0.128D+01
 Coeff:     -0.162D-04 0.992D-04 0.807D-03-0.490D-02 0.656D-02 0.540D-01
 Coeff:     -0.334D+00 0.128D+01
 Gap=     0.544 Goal=   None    Shift=    0.000
 RMSDP=1.72D-07 MaxDP=2.55D-06 DE=-1.57D-09 OVMax= 3.60D-06

 Cycle   9  Pass 1  IDiag  1:
 E= -76.0364996939408     Delta-E=       -0.000000000035 Rises=F Damp=F
 DIIS: error= 8.42D-08 at cycle   9 NSaved=   9.
 NSaved= 9 IEnMin= 9 EnMin= -76.0364996939408     IErMin= 9 ErrMin= 8.42D-08
 ErrMax= 8.42D-08  0.00D+00 EMaxC= 1.00D-01 BMatC= 1.97D-13 BMatP= 1.49D-11
 IDIUse=1 WtCom= 1.00D+00 WtEn= 0.00D+00
 Coeff-Com: -0.344D-05 0.177D-04 0.131D-03-0.514D-03-0.547D-03 0.987D-02
 Coeff-Com: -0.249D-01-0.478D-01 0.106D+01
 Coeff:     -0.344D-05 0.177D-04 0.131D-03-0.514D-03-0.547D-03 0.987D-02
 Coeff:     -0.249D-01-0.478D-01 0.106D+01
 Gap=     0.544 Goal=   None    Shift=    0.000
 RMSDP=2.21D-08 MaxDP=2.62D-07 DE=-3.52D-11 OVMax= 3.49D-07

 Cycle  10  Pass 1  IDiag  1:
 E= -76.0364996939412     Delta-E=       -0.000000000000 Rises=F Damp=F
 DIIS: error= 1.89D-08 at cycle  10 NSaved=  10.
 NSaved=10 IEnMin=10 EnMin= -76.0364996939412     IErMin=10 ErrMin= 1.89D-08
 ErrMax= 1.89D-08  0.00D+00 EMaxC= 1.00D-01 BMatC= 9.10D-15 BMatP= 1.97D-13
 IDIUse=1 WtCom= 1.00D+00 WtEn= 0.00D+00
 Coeff-Com:  0.920D-06-0.517D-05-0.400D-04 0.205D-03-0.497D-04-0.301D-02
 Coeff-Com:  0.130D-01-0.250D-01-0.218D+00 0.123D+01
 Coeff:      0.920D-06-0.517D-05-0.400D-04 0.205D-03-0.497D-04-0.301D-02
 Coeff:      0.130D-01-0.250D-01-0.218D+00 0.123D+01
 Gap=     0.544 Goal=   None    Shift=    0.000
 RMSDP=4.58D-09 MaxDP=4.54D-08 DE=-4.55D-13 OVMax= 6.90D-08

 SCF Done:  E(RHF) =  -76.0364996939     A.U. after   10 cycles
            NFock= 10  Conv=0.46D-08     -V/T= 2.0004
 KE= 7.600847299145D+01 PE=-1.993743257833D+02 EE= 3.792804654852D+01
 Leave Link  502 at Wed Feb  8 14:47:42 2023, MaxMem=   754974720 cpu:               0.6 elap:               0.2
 (Enter /opt/cluster/programs/g16-c.01/g16/l801.exe)
 Windowed orbitals will be sorted by symmetry type.
 ExpMin= 2.97D-02 ExpMax= 1.17D+04 ExpMxC= 4.01D+02 IAcc=3 IRadAn=         5 AccDes= 0.00D+00
 HarFok:  IExCor=  205 AccDes= 0.00D+00 IRadAn=         5 IDoV=-2 UseB2=F ITyADJ=14
 ICtDFT= 12500011 ScaDFX=  1.000000  1.000000  1.000000  1.000000
 Largest valence mixing into a core orbital is  5.95D-05
 Largest core mixing into a valence orbital is  1.72D-05
 Range of M.O.s used for correlation:     2    41
 NBasis=    41 NAE=     5 NBE=     5 NFC=     1 NFV=     0
 NROrb=     40 NOA=     4 NOB=     4 NVA=    36 NVB=    36
 Leave Link  801 at Wed Feb  8 14:47:42 2023, MaxMem=   754974720 cpu:               0.2 elap:               0.1
 (Enter /opt/cluster/programs/g16-c.01/g16/l804.exe)
 Closed-shell transformation, MDV=   754974720 ITran=4 ISComp=2.
 Unit  1 TFree=         57024 TCopy=        242858.
 Semi-Direct transformation.
 ModeAB=           2 MOrb=             4 LenV=     754769647
 LASXX=        60334 LTotXX=       60334 LenRXX=       60334
 LTotAB=       65632 MaxLAS=      151360 LenRXY=      151360
 NonZer=      159520 LenScr=      785920 LnRSAI=           0
 LnScr1=           0 LExtra=           0 Total=       997614
 MaxDsk=          -1 SrtSym=           F ITran=            4
 DoSDTr:  NPSUse=  4
 JobTyp=0 Pass  1:  I=   1 to   4.
 (rs|ai) integrals will be sorted in core.
 Complete sort for first half transformation.
 First half transformation complete.
 Complete sort for second half transformation.
 Second half transformation complete.
 Spin components of T(2) and E(2):
     alpha-alpha T2 =       0.7504466427D-02 E2=     -0.2766320140D-01
     alpha-beta  T2 =       0.4222681820D-01 E2=     -0.1616344459D+00
     beta-beta   T2 =       0.7504466427D-02 E2=     -0.2766320140D-01
 ANorm=    0.1028219700D+01
 E2 =    -0.2169608487D+00 EUMP2 =    -0.76253460542655D+02
 Leave Link  804 at Wed Feb  8 14:47:42 2023, MaxMem=   754974720 cpu:               0.4 elap:               0.1
 (Enter /opt/cluster/programs/g16-c.01/g16/l913.exe)
 CIDS:  MDV=   754974720.
 Frozen-core window:  NFC=   1 NFV=   0.
 IFCWin=0 IBDFC=1 NFBD=     0     0 NFCmp=     0     0 NFFFC=     0     0
 Using DD3R+UMP44R for 1st iteration.
 Using DD4RQ for 2nd and later iterations.
 Keep R2 and R3 ints in memory in symmetry-blocked form, NReq=1234065.
 FoFCou: FMM=F IPFlag=           0 FMFlag=           0 FMFlg1=           0
         NFxFlg=           0 DoJE=F BraDBF=F KetDBF=F FulRan=T
         wScrn=  0.000000 ICntrl=       600 IOpCl=  0 I1Cent=           0 NGrid=           0
         NMat0=    1 NMatS0=    861 NMatT0=    0 NMatD0=    1 NMtDS0=    0 NMtDT0=    0
 Petite list used in FoFCou.
 CIDS: In Core Option IDoMem=           1.
 CCSD(T)
 =======
 Iterations=  50 Convergence= 0.100D-06
 Produce multiple copies of IABC intergrals
 Iteration Nr.   1
 **********************
 DD1Dir will call FoFMem   1 times, MxPair=        20
 NAB=    10 NAA=     0 NBB=     0.
 MP4(R+Q)=  0.23986169D-02
 Maximum subspace dimension=  5
 A-vector RMS=  5.2378845D-03 Max=  1.6428776D-02 conv= 1.00D-05.
 RLE energy=       -0.2196522966
 E3=       -0.51491478D-02        EUMP3=      -0.76258609690D+02
 E4(DQ)=   -0.13335702D-02        UMP4(DQ)=   -0.76259943261D+02
 E4(SDQ)=  -0.29402610D-02        UMP4(SDQ)=  -0.76261549951D+02
 VARIATIONAL ENERGIES WITH THE FIRST-ORDER WAVEFUNCTION:
 DE(Corr)= -0.21961936     E(Corr)=     -76.256119051    
 NORM(A)=   0.10293004D+01
 Iteration Nr.   2
 **********************
 DD1Dir will call FoFMem   1 times, MxPair=        20
 NAB=    10 NAA=     0 NBB=     0.
 A-vector RMS=  6.1143206D-04 Max=  2.9148277D-03 conv= 1.00D-05.
 RLE energy=       -0.2244685286
 DE(Corr)= -0.22390406     E(CORR)=     -76.260403750     Delta=-4.28D-03
 NORM(A)=   0.10313084D+01
 Iteration Nr.   3
 **********************
 DD1Dir will call FoFMem   1 times, MxPair=        20
 NAB=    10 NAA=     0 NBB=     0.
 A-vector RMS=  7.1180829D-04 Max=  2.7438813D-03 conv= 1.00D-05.
 RLE energy=       -0.2248121523
 DE(Corr)= -0.22442763     E(CORR)=     -76.260927327     Delta=-5.24D-04
 NORM(A)=   0.10317728D+01
 Iteration Nr.   4
 **********************
 DD1Dir will call FoFMem   1 times, MxPair=        20
 NAB=    10 NAA=     0 NBB=     0.
 A-vector RMS=  8.3920656D-05 Max=  3.5340713D-04 conv= 1.00D-05.
 RLE energy=       -0.2248444030
 DE(Corr)= -0.22481801     E(CORR)=     -76.261317701     Delta=-3.90D-04
 NORM(A)=   0.10318740D+01
 Iteration Nr.   5
 **********************
 DD1Dir will call FoFMem   1 times, MxPair=        20
 NAB=    10 NAA=     0 NBB=     0.
 A-vector RMS=  3.6648416D-05 Max=  1.5701713D-04 conv= 1.00D-05.
 RLE energy=       -0.2248488196
 DE(Corr)= -0.22484581     E(CORR)=     -76.261345507     Delta=-2.78D-05
 NORM(A)=   0.10318903D+01
 Iteration Nr.   6
 **********************
 DD1Dir will call FoFMem   1 times, MxPair=        20
 NAB=    10 NAA=     0 NBB=     0.
 A-vector RMS=  9.6921278D-06 Max=  3.8394476D-05 conv= 1.00D-05.
 RLE energy=       -0.2248464436
 DE(Corr)= -0.22484756     E(CORR)=     -76.261347256     Delta=-1.75D-06
 NORM(A)=   0.10318921D+01
 Iteration Nr.   7
 **********************
 DD1Dir will call FoFMem   1 times, MxPair=        20
 NAB=    10 NAA=     0 NBB=     0.
 A-vector RMS=  3.7034823D-06 Max=  1.1939343D-05 conv= 1.00D-05.
 RLE energy=       -0.2248469715
 DE(Corr)= -0.22484755     E(CORR)=     -76.261347243     Delta= 1.34D-08
 NORM(A)=   0.10318928D+01
 Iteration Nr.   8
 **********************
 DD1Dir will call FoFMem   1 times, MxPair=        20
 NAB=    10 NAA=     0 NBB=     0.
 A-vector RMS=  1.2217654D-06 Max=  4.5876828D-06 conv= 1.00D-05.
 RLE energy=       -0.2248471864
 DE(Corr)= -0.22484726     E(CORR)=     -76.261346953     Delta= 2.90D-07
 NORM(A)=   0.10318931D+01
 Iteration Nr.   9
 **********************
 DD1Dir will call FoFMem   1 times, MxPair=        20
 NAB=    10 NAA=     0 NBB=     0.
 A-vector RMS=  3.7049290D-07 Max=  1.4089726D-06 conv= 1.00D-05.
 RLE energy=       -0.2248473778
 DE(Corr)= -0.22484739     E(CORR)=     -76.261347080     Delta=-1.26D-07
 NORM(A)=   0.10318932D+01
 Iteration Nr.  10
 **********************
 DD1Dir will call FoFMem   1 times, MxPair=        20
 NAB=    10 NAA=     0 NBB=     0.
 A-vector RMS=  1.6971604D-07 Max=  5.9175826D-07 conv= 1.00D-05.
 RLE energy=       -0.2248474172
 DE(Corr)= -0.22484740     E(CORR)=     -76.261347091     Delta=-1.15D-08
 NORM(A)=   0.10318933D+01
 CI/CC converged in   10 iterations to DelEn=-1.15D-08 Conv= 1.00D-07 ErrA1= 1.70D-07 Conv= 1.00D-05
 Wavefunction amplitudes converged. E(Corr)=     -76.261347091    
 Largest amplitude= 3.37D-02
 IPart=  4 IA=    3   10.95% done.
 IPart=  3 IA=    5   21.27% done.
 IPart=  4 IA=    7   30.95% done.
 IPart=  1 IA=    9   40.00% done.
 IPart=  3 IA=   12   52.38% done.
 IPart=  2 IA=   15   63.33% done.
 IPart=  2 IA=   18   72.86% done.
 IPart=  4 IA=   21   80.95% done.
 IPart=  2 IA=   26   91.27% done.
 Time for triples=        0.40 seconds.
 T4(CCSD)= -0.53882954D-02
 T5(CCSD)=  0.38560160D-03
 CCSD(T)= -0.76266349785D+02
 Discarding MO integrals.
 Leave Link  913 at Wed Feb  8 14:47:43 2023, MaxMem=   754974720 cpu:               1.3 elap:               0.3
 (Enter /opt/cluster/programs/g16-c.01/g16/l601.exe)
 Copying SCF densities to generalized density rwf, IOpCl= 0 IROHF=0.

 **********************************************************************

            Population analysis using the SCF Density.

 **********************************************************************

 Orbital symmetries:
       Occupied  (A') (A') (A') (A') (A")
       Virtual   (A') (A') (A') (A") (A') (A') (A') (A') (A") (A')
                 (A") (A') (A') (A') (A') (A') (A") (A') (A") (A')
                 (A') (A") (A') (A') (A") (A") (A') (A') (A') (A')
                 (A') (A") (A') (A") (A') (A')
 The electronic state is 1-A'.
 Alpha  occ. eigenvalues --  -20.56652  -1.35981  -0.75830  -0.56275  -0.50750
 Alpha virt. eigenvalues --    0.03678   0.05685   0.17496   0.19378   0.22104
 Alpha virt. eigenvalues --    0.22640   0.30431   0.31736   0.38001   0.43632
 Alpha virt. eigenvalues --    0.45957   0.52818   0.65056   0.66154   0.86057
 Alpha virt. eigenvalues --    0.89271   1.08013   1.08715   1.15103   1.41172
 Alpha virt. eigenvalues --    1.48370   1.50598   1.58529   1.99828   2.06024
 Alpha virt. eigenvalues --    2.09711   2.45799   2.49889   2.68237   2.78562
 Alpha virt. eigenvalues --    2.85999   3.65916   3.66989   3.71531   4.19297
 Alpha virt. eigenvalues --    4.31556
          Condensed to atoms (all electrons):
               1          2          3
     1  O    7.575244   0.361774   0.347500
     2  H    0.361774   0.585861  -0.059176
     3  H    0.347500  -0.059176   0.538699
 Mulliken charges:
               1
     1  O   -0.284518
     2  H    0.111541
     3  H    0.172977
 Sum of Mulliken charges =  -0.00000
 Mulliken charges with hydrogens summed into heavy atoms:
               1
     1  O   -0.000000
 Electronic spatial extent (au):  <R**2>=             19.2707
 Charge=             -0.0000 electrons
 Dipole moment (field-independent basis, Debye):
    X=              0.0142    Y=             -1.7396    Z=              0.0000  Tot=              1.7397
 Quadrupole moment (field-independent basis, Debye-Ang):
   XX=             -3.7705   YY=             -6.6409   ZZ=             -7.5618
   XY=              0.1966   XZ=              0.0000   YZ=              0.0000
 Traceless Quadrupole moment (field-independent basis, Debye-Ang):
   XX=              2.2206   YY=             -0.6499   ZZ=             -1.5707
   XY=              0.1966   XZ=              0.0000   YZ=              0.0000
 Octapole moment (field-independent basis, Debye-Ang**2):
  XXX=              0.0494  YYY=             -0.9925  ZZZ=              0.0000  XYY=             -0.1005
  XXY=             -1.2982  XXZ=              0.0000  XZZ=              0.0308  YZZ=             -0.2756
  YYZ=              0.0000  XYZ=              0.0000
 Hexadecapole moment (field-independent basis, Debye-Ang**3):
 XXXX=             -5.3880 YYYY=             -7.1629 ZZZZ=             -6.8473 XXXY=              0.0611
 XXXZ=              0.0000 YYYX=             -0.0089 YYYZ=              0.0000 ZZZX=              0.0000
 ZZZY=              0.0000 XXYY=             -2.0139 XXZZ=             -2.4572 YYZZ=             -2.3611
 XXYZ=              0.0000 YYXZ=              0.0000 ZZXY=             -0.0334
 N-N= 9.401306549358D+00 E-N=-1.993743255503D+02  KE= 7.600847299145D+01
 Symmetry A'   KE= 7.158100318452D+01
 Symmetry A"   KE= 4.427469806925D+00
 Leave Link  601 at Wed Feb  8 14:47:43 2023, MaxMem=   754974720 cpu:               0.2 elap:               0.1
 (Enter /opt/cluster/programs/g16-c.01/g16/l9999.exe)
 Unable to Open any file for archive entry.
 1\1\GINC-NODE60\SP\RCCSD(T)-FC\Aug-CC-pVDZ\H2O1\BOITTIER\08-Feb-2023\0
 \\#P CCSD(T)/aug-cc-pVDZ scf(maxcycle=200)\\Gaussian input\\0,1\O,0,0.
 ,0.11751,0.\H,0,0.7183372325,-0.4395112028,0.\H,0,-0.877723846,-0.2688
 600949,0.\\Version=ES64L-G16RevC.01\State=1-A'\HF=-76.0364997\MP2=-76.
 2534605\MP3=-76.2586097\MP4D=-76.2623419\MP4DQ=-76.2599433\MP4SDQ=-76.
 26155\CCSD=-76.2613471\CCSD(T)=-76.2663498\RMSD=4.582e-09\PG=CS [SG(H2
 O1)]\\@
 The archive entry for this job was punched.


 THERE'S A SUCKER BORN EVERY MINUTE

              -- PHINEAS TAYLOR (P.T.) BARNUM
 Job cpu time:       0 days  0 hours  0 minutes  5.3 seconds.
 Elapsed time:       0 days  0 hours  0 minutes  1.5 seconds.
 File lengths (MBytes):  RWF=     15 Int=      0 D2E=      0 Chk=      1 Scr=      1
 Normal termination of Gaussian 16 at Wed Feb  8 14:47:43 2023.
