 Entering Gaussian System, Link 0=/opt/cluster/programs/g16-c.01/g16/g16
 Input=/scratch/boittier/jobs/tmp.7312000/gaussian_172_water_hf_adz2.com
 Output=/scratch/boittier/jobs/tmp.7312000/gaussian_172_water_hf_adz2.out
 Initial command:
 /opt/cluster/programs/g16-c.01/g16/l1.exe "/scratch/boittier/jobs/tmp.7312000/Gau-183196.inp" -scrdir="/scratch/boittier/jobs/tmp.7312000/"
 Entering Link 1 = /opt/cluster/programs/g16-c.01/g16/l1.exe PID=    183197.
  
 Copyright (c) 1988-2019, Gaussian, Inc.  All Rights Reserved.
  
 This is part of the Gaussian(R) 16 program.  It is based on
 the Gaussian(R) 09 system (copyright 2009, Gaussian, Inc.),
 the Gaussian(R) 03 system (copyright 2003, Gaussian, Inc.),
 the Gaussian(R) 98 system (copyright 1998, Gaussian, Inc.),
 the Gaussian(R) 94 system (copyright 1995, Gaussian, Inc.),
 the Gaussian 92(TM) system (copyright 1992, Gaussian, Inc.),
 the Gaussian 90(TM) system (copyright 1990, Gaussian, Inc.),
 the Gaussian 88(TM) system (copyright 1988, Gaussian, Inc.),
 the Gaussian 86(TM) system (copyright 1986, Carnegie Mellon
 University), and the Gaussian 82(TM) system (copyright 1983,
 Carnegie Mellon University). Gaussian is a federally registered
 trademark of Gaussian, Inc.
  
 This software contains proprietary and confidential information,
 including trade secrets, belonging to Gaussian, Inc.
  
 This software is provided under written license and may be
 used, copied, transmitted, or stored only in accord with that
 written license.
  
 The following legend is applicable only to US Government
 contracts under FAR:
  
                    RESTRICTED RIGHTS LEGEND
  
 Use, reproduction and disclosure by the US Government is
 subject to restrictions as set forth in subparagraphs (a)
 and (c) of the Commercial Computer Software - Restricted
 Rights clause in FAR 52.227-19.
  
 Gaussian, Inc.
 340 Quinnipiac St., Bldg. 40, Wallingford CT 06492
  
  
 ---------------------------------------------------------------
 Warning -- This program may not be used in any manner that
 competes with the business of Gaussian, Inc. or will provide
 assistance to any competitor of Gaussian, Inc.  The licensee
 of this program is prohibited from giving any competitor of
 Gaussian, Inc. access to this program.  By using this program,
 the user acknowledges that Gaussian, Inc. is engaged in the
 business of creating and licensing software in the field of
 computational chemistry and represents and warrants to the
 licensee that it is not a competitor of Gaussian, Inc. and that
 it will not use this program in any manner prohibited above.
 ---------------------------------------------------------------
  

 Cite this work as:
 Gaussian 16, Revision C.01,
 M. J. Frisch, G. W. Trucks, H. B. Schlegel, G. E. Scuseria, 
 M. A. Robb, J. R. Cheeseman, G. Scalmani, V. Barone, 
 G. A. Petersson, H. Nakatsuji, X. Li, M. Caricato, A. V. Marenich, 
 J. Bloino, B. G. Janesko, R. Gomperts, B. Mennucci, H. P. Hratchian, 
 J. V. Ortiz, A. F. Izmaylov, J. L. Sonnenberg, D. Williams-Young, 
 F. Ding, F. Lipparini, F. Egidi, J. Goings, B. Peng, A. Petrone, 
 T. Henderson, D. Ranasinghe, V. G. Zakrzewski, J. Gao, N. Rega, 
 G. Zheng, W. Liang, M. Hada, M. Ehara, K. Toyota, R. Fukuda, 
 J. Hasegawa, M. Ishida, T. Nakajima, Y. Honda, O. Kitao, H. Nakai, 
 T. Vreven, K. Throssell, J. A. Montgomery, Jr., J. E. Peralta, 
 F. Ogliaro, M. J. Bearpark, J. J. Heyd, E. N. Brothers, K. N. Kudin, 
 V. N. Staroverov, T. A. Keith, R. Kobayashi, J. Normand, 
 K. Raghavachari, A. P. Rendell, J. C. Burant, S. S. Iyengar, 
 J. Tomasi, M. Cossi, J. M. Millam, M. Klene, C. Adamo, R. Cammi, 
 J. W. Ochterski, R. L. Martin, K. Morokuma, O. Farkas, 
 J. B. Foresman, and D. J. Fox, Gaussian, Inc., Wallingford CT, 2019.
 
 ******************************************
 Gaussian 16:  ES64L-G16RevC.01  3-Jul-2019
                20-Feb-2023 
 ******************************************
 %nproc=4
 Will use up to    4 processors via shared memory.
 %mem=5760MB
 %chk=gaussian_172_water_hf_adz2.chk
 -----------------------------------
 #P HF/aug-cc-pVDZ scf(maxcycle=200)
 -----------------------------------
 1/38=1,172=1/1;
 2/12=2,17=6,18=5,40=1/2;
 3/5=16,7=10,11=9,25=1,30=1/1,2,3;
 4//1;
 5/5=2,7=200,38=5/2;
 6/7=2,8=2,9=2,10=2,28=1/1;
 99/5=1,9=1/99;
 Leave Link    1 at Mon Feb 20 10:17:28 2023, MaxMem=   754974720 cpu:               0.1 elap:               0.0
 (Enter /opt/cluster/programs/g16-c.01/g16/l101.exe)
 --------------
 Gaussian input
 --------------
 Symbolic Z-matrix:
 Charge =  0 Multiplicity = 1
 O                     0.        0.11751   0. 
 H                     0.79736  -0.50079   0. 
 H                    -0.83887  -0.44319   0. 
 
 ITRead=  0  0  0
 MicOpt= -1 -1 -1
 NAtoms=      3 NQM=        3 NQMF=       0 NMMI=      0 NMMIF=      0
                NMic=       0 NMicF=      0.
                    Isotopes and Nuclear Properties:
 (Nuclear quadrupole moments (NQMom) in fm**2, nuclear magnetic moments (NMagM)
  in nuclear magnetons)

  Atom         1           2           3
 IAtWgt=          16           1           1
 AtmWgt=  15.9949146   1.0078250   1.0078250
 NucSpn=           0           1           1
 AtZEff=  -0.0000000  -0.0000000  -0.0000000
 NQMom=    0.0000000   0.0000000   0.0000000
 NMagM=    0.0000000   2.7928460   2.7928460
 AtZNuc=   8.0000000   1.0000000   1.0000000
 Leave Link  101 at Mon Feb 20 10:17:28 2023, MaxMem=   754974720 cpu:               0.5 elap:               0.2
 (Enter /opt/cluster/programs/g16-c.01/g16/l202.exe)
                          Input orientation:                          
 ---------------------------------------------------------------------
 Center     Atomic      Atomic             Coordinates (Angstroms)
 Number     Number       Type             X           Y           Z
 ---------------------------------------------------------------------
      1          8           0        0.000000    0.117510    0.000000
      2          1           0        0.797362   -0.500790    0.000000
      3          1           0       -0.838866   -0.443190    0.000000
 ---------------------------------------------------------------------
                    Distance matrix (angstroms):
                    1          2          3
     1  O    0.000000
     2  H    1.009000   0.000000
     3  H    1.009000   1.637242   0.000000
 Stoichiometry    H2O
 Framework group  C2V[C2(O),SGV(H2)]
 Deg. of freedom     2
 Full point group                 C2V     NOp   4
 Largest Abelian subgroup         C2V     NOp   4
 Largest concise Abelian subgroup C2      NOp   2
                         Standard orientation:                         
 ---------------------------------------------------------------------
 Center     Atomic      Atomic             Coordinates (Angstroms)
 Number     Number       Type             X           Y           Z
 ---------------------------------------------------------------------
      1          8           0        0.000000   -0.000000    0.117973
      2          1           0       -0.000000    0.818621   -0.471892
      3          1           0       -0.000000   -0.818621   -0.471892
 ---------------------------------------------------------------------
 Rotational constants (GHZ):         811.4130231         374.1419960         256.0688312
 Leave Link  202 at Mon Feb 20 10:17:28 2023, MaxMem=   754974720 cpu:               0.1 elap:               0.1
 (Enter /opt/cluster/programs/g16-c.01/g16/l301.exe)
 Standard basis: Aug-CC-pVDZ (5D, 7F)
 Ernie: Thresh=  0.10000D-02 Tol=  0.10000D-05 Strict=F.
 Ernie:  2 primitive shells out of 39 were deleted.
 There are    20 symmetry adapted cartesian basis functions of A1  symmetry.
 There are     4 symmetry adapted cartesian basis functions of A2  symmetry.
 There are     7 symmetry adapted cartesian basis functions of B1  symmetry.
 There are    12 symmetry adapted cartesian basis functions of B2  symmetry.
 There are    18 symmetry adapted basis functions of A1  symmetry.
 There are     4 symmetry adapted basis functions of A2  symmetry.
 There are     7 symmetry adapted basis functions of B1  symmetry.
 There are    12 symmetry adapted basis functions of B2  symmetry.
    41 basis functions,    65 primitive gaussians,    43 cartesian basis functions
     5 alpha electrons        5 beta electrons
       nuclear repulsion energy         8.7145261926 Hartrees.
 IExCor=    0 DFT=F Ex=HF Corr=None ExCW=0 ScaHFX=  1.000000
 ScaDFX=  1.000000  1.000000  1.000000  1.000000 ScalE2=  1.000000  1.000000
 IRadAn=      5 IRanWt=     -1 IRanGd=            0 ICorTp=0 IEmpDi=  4
 NAtoms=    3 NActive=    3 NUniq=    2 SFac= 2.25D+00 NAtFMM=   60 NAOKFM=F Big=F
 Integral buffers will be    131072 words long.
 Raffenetti 1 integral format.
 Two-electron integral symmetry is turned on.
 Leave Link  301 at Mon Feb 20 10:17:28 2023, MaxMem=   754974720 cpu:               0.2 elap:               0.1
 (Enter /opt/cluster/programs/g16-c.01/g16/l302.exe)
 NPDir=0 NMtPBC=     1 NCelOv=     1 NCel=       1 NClECP=     1 NCelD=      1
         NCelK=      1 NCelE2=     1 NClLst=     1 CellRange=     0.0.
 One-electron integrals computed using PRISM.
 One-electron integral symmetry used in STVInt
 NBasis=    41 RedAO= T EigKep=  3.25D-03  NBF=    18     4     7    12
 NBsUse=    41 1.00D-06 EigRej= -1.00D+00 NBFU=    18     4     7    12
 Leave Link  302 at Mon Feb 20 10:17:29 2023, MaxMem=   754974720 cpu:               1.6 elap:               0.6
 (Enter /opt/cluster/programs/g16-c.01/g16/l303.exe)
 DipDrv:  MaxL=1.
 Leave Link  303 at Mon Feb 20 10:17:29 2023, MaxMem=   754974720 cpu:               0.5 elap:               0.3
 (Enter /opt/cluster/programs/g16-c.01/g16/l401.exe)
 ExpMin= 2.97D-02 ExpMax= 1.17D+04 ExpMxC= 4.01D+02 IAcc=3 IRadAn=         5 AccDes= 0.00D+00
 Harris functional with IExCor=  205 and IRadAn=       5 diagonalized for initial guess.
 HarFok:  IExCor=  205 AccDes= 0.00D+00 IRadAn=         5 IDoV= 1 UseB2=F ITyADJ=14
 ICtDFT=  3500011 ScaDFX=  1.000000  1.000000  1.000000  1.000000
 FoFCou: FMM=F IPFlag=           0 FMFlag=      100000 FMFlg1=           0
         NFxFlg=           0 DoJE=T BraDBF=F KetDBF=T FulRan=T
         wScrn=  0.000000 ICntrl=       500 IOpCl=  0 I1Cent=   200000004 NGrid=           0
         NMat0=    1 NMatS0=      1 NMatT0=    0 NMatD0=    1 NMtDS0=    0 NMtDT0=    0
 Petite list used in FoFCou.
 Harris En= -76.1190437756235    
 JPrj=0 DoOrth=F DoCkMO=F.
 Initial guess orbital symmetries:
       Occupied  (A1) (A1) (B2) (A1) (B1)
       Virtual   (A1) (B2) (A1) (B1) (A1) (B2) (B2) (A1) (A2) (A1)
                 (B1) (B2) (A1) (B2) (B2) (A1) (B1) (A1) (A2) (A1)
                 (B1) (B2) (A1) (B2) (A2) (B1) (B2) (A1) (A1) (B2)
                 (A1) (B1) (A1) (A2) (A1) (B2)
 The electronic state of the initial guess is 1-A1.
 Leave Link  401 at Mon Feb 20 10:17:29 2023, MaxMem=   754974720 cpu:               1.3 elap:               0.4
 (Enter /opt/cluster/programs/g16-c.01/g16/l502.exe)
 Keep R1 ints in memory in symmetry-blocked form, NReq=1211474.
 FoFCou: FMM=F IPFlag=           0 FMFlag=           0 FMFlg1=           0
         NFxFlg=           0 DoJE=F BraDBF=F KetDBF=F FulRan=T
         wScrn=  0.000000 ICntrl=       600 IOpCl=  0 I1Cent=           0 NGrid=           0
         NMat0=    1 NMatS0=    861 NMatT0=    0 NMatD0=    1 NMtDS0=    0 NMtDT0=    0
 Petite list used in FoFCou.
 Closed shell SCF:
 Using DIIS extrapolation, IDIIS=  1040.
 NGot=   754974720 LenX=   754868251 LenY=   754865961
 Requested convergence on RMS density matrix=1.00D-08 within 200 cycles.
 Requested convergence on MAX density matrix=1.00D-06.
 Requested convergence on             energy=1.00D-06.
 No special actions if energy rises.

 Cycle   1  Pass 1  IDiag  1:
 E= -75.9608945282369    
 DIIS: error= 4.87D-02 at cycle   1 NSaved=   1.
 NSaved= 1 IEnMin= 1 EnMin= -75.9608945282369     IErMin= 1 ErrMin= 4.87D-02
 ErrMax= 4.87D-02  0.00D+00 EMaxC= 1.00D-01 BMatC= 1.09D-01 BMatP= 1.09D-01
 IDIUse=3 WtCom= 5.13D-01 WtEn= 4.87D-01
 Coeff-Com:  0.100D+01
 Coeff-En:   0.100D+01
 Coeff:      0.100D+01
 Gap=     0.460 Goal=   None    Shift=    0.000
 GapD=    0.460 DampG=2.000 DampE=0.500 DampFc=1.0000 IDamp=-1.
 RMSDP=6.06D-03 MaxDP=1.13D-01              OVMax= 1.21D-01

 Cycle   2  Pass 1  IDiag  1:
 E= -76.0003447556269     Delta-E=       -0.039450227390 Rises=F Damp=F
 DIIS: error= 4.09D-02 at cycle   2 NSaved=   2.
 NSaved= 2 IEnMin= 2 EnMin= -76.0003447556269     IErMin= 2 ErrMin= 4.09D-02
 ErrMax= 4.09D-02  0.00D+00 EMaxC= 1.00D-01 BMatC= 4.56D-02 BMatP= 1.09D-01
 IDIUse=3 WtCom= 5.91D-01 WtEn= 4.09D-01
 Coeff-Com:  0.382D+00 0.618D+00
 Coeff-En:   0.242D+00 0.758D+00
 Coeff:      0.325D+00 0.675D+00
 Gap=     0.554 Goal=   None    Shift=    0.000
 RMSDP=2.94D-03 MaxDP=5.43D-02 DE=-3.95D-02 OVMax= 5.93D-02

 Cycle   3  Pass 1  IDiag  1:
 E= -76.0323043360450     Delta-E=       -0.031959580418 Rises=F Damp=F
 DIIS: error= 4.47D-03 at cycle   3 NSaved=   3.
 NSaved= 3 IEnMin= 3 EnMin= -76.0323043360450     IErMin= 3 ErrMin= 4.47D-03
 ErrMax= 4.47D-03  0.00D+00 EMaxC= 1.00D-01 BMatC= 1.08D-03 BMatP= 4.56D-02
 IDIUse=3 WtCom= 9.55D-01 WtEn= 4.47D-02
 Coeff-Com: -0.388D-01 0.883D-01 0.951D+00
 Coeff-En:   0.000D+00 0.000D+00 0.100D+01
 Coeff:     -0.371D-01 0.843D-01 0.953D+00
 Gap=     0.537 Goal=   None    Shift=    0.000
 RMSDP=4.62D-04 MaxDP=8.25D-03 DE=-3.20D-02 OVMax= 9.68D-03

 Cycle   4  Pass 1  IDiag  1:
 E= -76.0331608942283     Delta-E=       -0.000856558183 Rises=F Damp=F
 DIIS: error= 7.73D-04 at cycle   4 NSaved=   4.
 NSaved= 4 IEnMin= 4 EnMin= -76.0331608942283     IErMin= 4 ErrMin= 7.73D-04
 ErrMax= 7.73D-04  0.00D+00 EMaxC= 1.00D-01 BMatC= 9.44D-06 BMatP= 1.08D-03
 IDIUse=3 WtCom= 9.92D-01 WtEn= 7.73D-03
 Coeff-Com:  0.865D-02-0.428D-01-0.331D+00 0.136D+01
 Coeff-En:   0.000D+00 0.000D+00 0.000D+00 0.100D+01
 Coeff:      0.858D-02-0.424D-01-0.328D+00 0.136D+01
 Gap=     0.538 Goal=   None    Shift=    0.000
 RMSDP=1.26D-04 MaxDP=1.46D-03 DE=-8.57D-04 OVMax= 2.46D-03

 Cycle   5  Pass 1  IDiag  1:
 E= -76.0331851392214     Delta-E=       -0.000024244993 Rises=F Damp=F
 DIIS: error= 2.16D-04 at cycle   5 NSaved=   5.
 NSaved= 5 IEnMin= 5 EnMin= -76.0331851392214     IErMin= 5 ErrMin= 2.16D-04
 ErrMax= 2.16D-04  0.00D+00 EMaxC= 1.00D-01 BMatC= 4.53D-07 BMatP= 9.44D-06
 IDIUse=3 WtCom= 9.98D-01 WtEn= 2.16D-03
 Coeff-Com:  0.375D-03 0.224D-02 0.127D-01-0.257D+00 0.124D+01
 Coeff-En:   0.000D+00 0.000D+00 0.000D+00 0.000D+00 0.100D+01
 Coeff:      0.374D-03 0.223D-02 0.127D-01-0.257D+00 0.124D+01
 Gap=     0.539 Goal=   None    Shift=    0.000
 RMSDP=3.17D-05 MaxDP=4.83D-04 DE=-2.42D-05 OVMax= 6.66D-04

 Cycle   6  Pass 1  IDiag  1:
 E= -76.0331865732155     Delta-E=       -0.000001433994 Rises=F Damp=F
 DIIS: error= 4.38D-05 at cycle   6 NSaved=   6.
 NSaved= 6 IEnMin= 6 EnMin= -76.0331865732155     IErMin= 6 ErrMin= 4.38D-05
 ErrMax= 4.38D-05  0.00D+00 EMaxC= 1.00D-01 BMatC= 1.91D-08 BMatP= 4.53D-07
 IDIUse=1 WtCom= 1.00D+00 WtEn= 0.00D+00
 Coeff-Com: -0.446D-03 0.153D-02 0.129D-01-0.183D-01-0.258D+00 0.126D+01
 Coeff:     -0.446D-03 0.153D-02 0.129D-01-0.183D-01-0.258D+00 0.126D+01
 Gap=     0.539 Goal=   None    Shift=    0.000
 RMSDP=6.01D-06 MaxDP=1.21D-04 DE=-1.43D-06 OVMax= 1.60D-04

 Cycle   7  Pass 1  IDiag  1:
 E= -76.0331866351431     Delta-E=       -0.000000061928 Rises=F Damp=F
 DIIS: error= 7.74D-06 at cycle   7 NSaved=   7.
 NSaved= 7 IEnMin= 7 EnMin= -76.0331866351431     IErMin= 7 ErrMin= 7.74D-06
 ErrMax= 7.74D-06  0.00D+00 EMaxC= 1.00D-01 BMatC= 8.52D-10 BMatP= 1.91D-08
 IDIUse=1 WtCom= 1.00D+00 WtEn= 0.00D+00
 Coeff-Com:  0.162D-03-0.713D-03-0.603D-02 0.214D-01 0.406D-01-0.460D+00
 Coeff-Com:  0.140D+01
 Coeff:      0.162D-03-0.713D-03-0.603D-02 0.214D-01 0.406D-01-0.460D+00
 Coeff:      0.140D+01
 Gap=     0.539 Goal=   None    Shift=    0.000
 RMSDP=1.15D-06 MaxDP=2.31D-05 DE=-6.19D-08 OVMax= 3.35D-05

 Cycle   8  Pass 1  IDiag  1:
 E= -76.0331866374725     Delta-E=       -0.000000002329 Rises=F Damp=F
 DIIS: error= 1.10D-06 at cycle   8 NSaved=   8.
 NSaved= 8 IEnMin= 8 EnMin= -76.0331866374725     IErMin= 8 ErrMin= 1.10D-06
 ErrMax= 1.10D-06  0.00D+00 EMaxC= 1.00D-01 BMatC= 2.55D-11 BMatP= 8.52D-10
 IDIUse=1 WtCom= 1.00D+00 WtEn= 0.00D+00
 Coeff-Com: -0.363D-04 0.175D-03 0.156D-02-0.689D-02-0.306D-02 0.109D+00
 Coeff-Com: -0.480D+00 0.138D+01
 Coeff:     -0.363D-04 0.175D-03 0.156D-02-0.689D-02-0.306D-02 0.109D+00
 Coeff:     -0.480D+00 0.138D+01
 Gap=     0.539 Goal=   None    Shift=    0.000
 RMSDP=2.63D-07 MaxDP=3.57D-06 DE=-2.33D-09 OVMax= 5.07D-06

 Cycle   9  Pass 1  IDiag  1:
 E= -76.0331866375383     Delta-E=       -0.000000000066 Rises=F Damp=F
 DIIS: error= 1.34D-07 at cycle   9 NSaved=   9.
 NSaved= 9 IEnMin= 9 EnMin= -76.0331866375383     IErMin= 9 ErrMin= 1.34D-07
 ErrMax= 1.34D-07  0.00D+00 EMaxC= 1.00D-01 BMatC= 5.07D-13 BMatP= 2.55D-11
 IDIUse=1 WtCom= 1.00D+00 WtEn= 0.00D+00
 Coeff-Com:  0.613D-05-0.306D-04-0.293D-03 0.146D-02 0.970D-04-0.213D-01
 Coeff-Com:  0.112D+00-0.424D+00 0.133D+01
 Coeff:      0.613D-05-0.306D-04-0.293D-03 0.146D-02 0.970D-04-0.213D-01
 Coeff:      0.112D+00-0.424D+00 0.133D+01
 Gap=     0.539 Goal=   None    Shift=    0.000
 RMSDP=3.61D-08 MaxDP=3.88D-07 DE=-6.58D-11 OVMax= 6.88D-07

 Cycle  10  Pass 1  IDiag  1:
 E= -76.0331866375398     Delta-E=       -0.000000000001 Rises=F Damp=F
 DIIS: error= 3.10D-08 at cycle  10 NSaved=  10.
 NSaved=10 IEnMin=10 EnMin= -76.0331866375398     IErMin=10 ErrMin= 3.10D-08
 ErrMax= 3.10D-08  0.00D+00 EMaxC= 1.00D-01 BMatC= 2.65D-14 BMatP= 5.07D-13
 IDIUse=1 WtCom= 1.00D+00 WtEn= 0.00D+00
 Coeff-Com: -0.452D-06 0.248D-05 0.330D-04-0.231D-03 0.256D-03 0.228D-02
 Coeff-Com: -0.175D-01 0.840D-01-0.441D+00 0.137D+01
 Coeff:     -0.452D-06 0.248D-05 0.330D-04-0.231D-03 0.256D-03 0.228D-02
 Coeff:     -0.175D-01 0.840D-01-0.441D+00 0.137D+01
 Gap=     0.539 Goal=   None    Shift=    0.000
 RMSDP=8.15D-09 MaxDP=7.09D-08 DE=-1.46D-12 OVMax= 2.13D-07

 SCF Done:  E(RHF) =  -76.0331866375     A.U. after   10 cycles
            NFock= 10  Conv=0.81D-08     -V/T= 2.0039
 KE= 7.573414254482D+01 PE=-1.978623883338D+02 EE= 3.738053295887D+01
 Leave Link  502 at Mon Feb 20 10:17:31 2023, MaxMem=   754974720 cpu:               3.1 elap:               1.1
 (Enter /opt/cluster/programs/g16-c.01/g16/l601.exe)
 Copying SCF densities to generalized density rwf, IOpCl= 0 IROHF=0.

 **********************************************************************

            Population analysis using the SCF Density.

 **********************************************************************

 Orbital symmetries:
       Occupied  (A1) (A1) (B2) (A1) (B1)
       Virtual   (A1) (B2) (A1) (B1) (A1) (B2) (B2) (A1) (A2) (A1)
                 (B1) (B2) (A1) (B2) (B2) (A1) (B1) (A1) (A2) (A1)
                 (B2) (B1) (A1) (B2) (A2) (B1) (A1) (B2) (A1) (B2)
                 (A1) (B1) (A1) (A2) (A1) (B2)
 The electronic state is 1-A1.
 Alpha  occ. eigenvalues --  -20.58363  -1.32898  -0.69863  -0.56817  -0.50418
 Alpha virt. eigenvalues --    0.03474   0.05727   0.17550   0.19880   0.21695
 Alpha virt. eigenvalues --    0.23156   0.27881   0.31924   0.37960   0.40439
 Alpha virt. eigenvalues --    0.43215   0.52734   0.63457   0.65205   0.80173
 Alpha virt. eigenvalues --    0.90157   1.10179   1.11165   1.14456   1.31059
 Alpha virt. eigenvalues --    1.45571   1.47163   1.56740   1.95619   1.99593
 Alpha virt. eigenvalues --    2.06286   2.37103   2.37799   2.51161   2.70652
 Alpha virt. eigenvalues --    2.92227   3.66744   3.67833   3.69381   3.98863
 Alpha virt. eigenvalues --    4.19048
          Condensed to atoms (all electrons):
               1          2          3
     1  O    7.781697   0.318256   0.318256
     2  H    0.318256   0.496737  -0.024098
     3  H    0.318256  -0.024098   0.496737
 Mulliken charges:
               1
     1  O   -0.418209
     2  H    0.209105
     3  H    0.209105
 Sum of Mulliken charges =   0.00000
 Mulliken charges with hydrogens summed into heavy atoms:
               1
     1  O    0.000000
 Electronic spatial extent (au):  <R**2>=             20.2306
 Charge=              0.0000 electrons
 Dipole moment (field-independent basis, Debye):
    X=             -0.0000    Y=              0.0000    Z=             -1.9705  Tot=              1.9705
 Quadrupole moment (field-independent basis, Debye-Ang):
   XX=             -7.7188   YY=             -3.9625   ZZ=             -6.4179
   XY=              0.0000   XZ=              0.0000   YZ=             -0.0000
 Traceless Quadrupole moment (field-independent basis, Debye-Ang):
   XX=             -1.6857   YY=              2.0705   ZZ=             -0.3848
   XY=              0.0000   XZ=              0.0000   YZ=             -0.0000
 Octapole moment (field-independent basis, Debye-Ang**2):
  XXX=              0.0000  YYY=              0.0000  ZZZ=             -1.0712  XYY=             -0.0000
  XXY=              0.0000  XXZ=             -0.2495  XZZ=              0.0000  YZZ=              0.0000
  YYZ=             -1.5673  XYZ=             -0.0000
 Hexadecapole moment (field-independent basis, Debye-Ang**3):
 XXXX=             -7.0180 YYYY=             -6.1992 ZZZZ=             -7.7145 XXXY=             -0.0000
 XXXZ=             -0.0000 YYYX=             -0.0000 YYYZ=             -0.0000 ZZZX=             -0.0000
 ZZZY=              0.0000 XXYY=             -2.6349 XXZZ=             -2.5081 YYZZ=             -1.9912
 XXYZ=              0.0000 YYXZ=              0.0000 ZZXY=             -0.0000
 N-N= 8.714526192568D+00 E-N=-1.978623887178D+02  KE= 7.573414254482D+01
 Symmetry A1   KE= 6.786358752039D+01
 Symmetry A2   KE= 3.738440893577D-34
 Symmetry B1   KE= 4.447009987133D+00
 Symmetry B2   KE= 3.423545037296D+00
 No NMR shielding tensors so no spin-rotation constants.
 Leave Link  601 at Mon Feb 20 10:17:31 2023, MaxMem=   754974720 cpu:               1.3 elap:               0.6
 (Enter /opt/cluster/programs/g16-c.01/g16/l9999.exe)
 Unable to Open any file for archive entry.
 1\1\GINC-NODE105\SP\RHF\Aug-CC-pVDZ\H2O1\BOITTIER\20-Feb-2023\0\\#P HF
 /aug-cc-pVDZ scf(maxcycle=200)\\Gaussian input\\0,1\O,0,0.,0.11751,0.\
 H,0,0.7973622306,-0.5007896629,0.\H,0,-0.8388659611,-0.443190365,0.\\V
 ersion=ES64L-G16RevC.01\State=1-A1\HF=-76.0331866\RMSD=8.147e-09\Dipol
 e=-0.0272733,-0.7747563,0.\Quadrupole=1.5371259,-0.2838353,-1.2532905,
 -0.0641819,0.,0.\PG=C02V [C2(O1),SGV(H2)]\\@
 The archive entry for this job was punched.


 NECESSARY EVIL: ONE WE LIKE TOO MUCH TO RELINQUISH.
 Job cpu time:       0 days  0 hours  0 minutes  8.9 seconds.
 Elapsed time:       0 days  0 hours  0 minutes  3.5 seconds.
 File lengths (MBytes):  RWF=      6 Int=      0 D2E=      0 Chk=      1 Scr=      1
 Normal termination of Gaussian 16 at Mon Feb 20 10:17:31 2023.
