 Entering Gaussian System, Link 0=/opt/cluster/programs/g16-c.01/g16/g16
 Input=/scratch/boittier/jobs/tmp.7262290/gaussian_122_water_ccsdt_adz.com
 Output=/scratch/boittier/jobs/tmp.7262290/gaussian_122_water_ccsdt_adz.out
 Initial command:
 /opt/cluster/programs/g16-c.01/g16/l1.exe "/scratch/boittier/jobs/tmp.7262290/Gau-54160.inp" -scrdir="/scratch/boittier/jobs/tmp.7262290/"
 Entering Link 1 = /opt/cluster/programs/g16-c.01/g16/l1.exe PID=     54161.
  
 Copyright (c) 1988-2019, Gaussian, Inc.  All Rights Reserved.
  
 This is part of the Gaussian(R) 16 program.  It is based on
 the Gaussian(R) 09 system (copyright 2009, Gaussian, Inc.),
 the Gaussian(R) 03 system (copyright 2003, Gaussian, Inc.),
 the Gaussian(R) 98 system (copyright 1998, Gaussian, Inc.),
 the Gaussian(R) 94 system (copyright 1995, Gaussian, Inc.),
 the Gaussian 92(TM) system (copyright 1992, Gaussian, Inc.),
 the Gaussian 90(TM) system (copyright 1990, Gaussian, Inc.),
 the Gaussian 88(TM) system (copyright 1988, Gaussian, Inc.),
 the Gaussian 86(TM) system (copyright 1986, Carnegie Mellon
 University), and the Gaussian 82(TM) system (copyright 1983,
 Carnegie Mellon University). Gaussian is a federally registered
 trademark of Gaussian, Inc.
  
 This software contains proprietary and confidential information,
 including trade secrets, belonging to Gaussian, Inc.
  
 This software is provided under written license and may be
 used, copied, transmitted, or stored only in accord with that
 written license.
  
 The following legend is applicable only to US Government
 contracts under FAR:
  
                    RESTRICTED RIGHTS LEGEND
  
 Use, reproduction and disclosure by the US Government is
 subject to restrictions as set forth in subparagraphs (a)
 and (c) of the Commercial Computer Software - Restricted
 Rights clause in FAR 52.227-19.
  
 Gaussian, Inc.
 340 Quinnipiac St., Bldg. 40, Wallingford CT 06492
  
  
 ---------------------------------------------------------------
 Warning -- This program may not be used in any manner that
 competes with the business of Gaussian, Inc. or will provide
 assistance to any competitor of Gaussian, Inc.  The licensee
 of this program is prohibited from giving any competitor of
 Gaussian, Inc. access to this program.  By using this program,
 the user acknowledges that Gaussian, Inc. is engaged in the
 business of creating and licensing software in the field of
 computational chemistry and represents and warrants to the
 licensee that it is not a competitor of Gaussian, Inc. and that
 it will not use this program in any manner prohibited above.
 ---------------------------------------------------------------
  

 Cite this work as:
 Gaussian 16, Revision C.01,
 M. J. Frisch, G. W. Trucks, H. B. Schlegel, G. E. Scuseria, 
 M. A. Robb, J. R. Cheeseman, G. Scalmani, V. Barone, 
 G. A. Petersson, H. Nakatsuji, X. Li, M. Caricato, A. V. Marenich, 
 J. Bloino, B. G. Janesko, R. Gomperts, B. Mennucci, H. P. Hratchian, 
 J. V. Ortiz, A. F. Izmaylov, J. L. Sonnenberg, D. Williams-Young, 
 F. Ding, F. Lipparini, F. Egidi, J. Goings, B. Peng, A. Petrone, 
 T. Henderson, D. Ranasinghe, V. G. Zakrzewski, J. Gao, N. Rega, 
 G. Zheng, W. Liang, M. Hada, M. Ehara, K. Toyota, R. Fukuda, 
 J. Hasegawa, M. Ishida, T. Nakajima, Y. Honda, O. Kitao, H. Nakai, 
 T. Vreven, K. Throssell, J. A. Montgomery, Jr., J. E. Peralta, 
 F. Ogliaro, M. J. Bearpark, J. J. Heyd, E. N. Brothers, K. N. Kudin, 
 V. N. Staroverov, T. A. Keith, R. Kobayashi, J. Normand, 
 K. Raghavachari, A. P. Rendell, J. C. Burant, S. S. Iyengar, 
 J. Tomasi, M. Cossi, J. M. Millam, M. Klene, C. Adamo, R. Cammi, 
 J. W. Ochterski, R. L. Martin, K. Morokuma, O. Farkas, 
 J. B. Foresman, and D. J. Fox, Gaussian, Inc., Wallingford CT, 2019.
 
 ******************************************
 Gaussian 16:  ES64L-G16RevC.01  3-Jul-2019
                 8-Feb-2023 
 ******************************************
 %nproc=4
 Will use up to    4 processors via shared memory.
 %mem=5760MB
 %chk=gaussian_122_water_ccsdt_adz.chk
 ----------------------------------------
 #P CCSD(T)/aug-cc-pVDZ scf(maxcycle=200)
 ----------------------------------------
 1/38=1,172=1/1;
 2/12=2,17=6,18=5,40=1/2;
 3/5=16,7=10,11=9,25=1,30=1/1,2,3;
 4//1;
 5/5=2,7=200,38=5/2;
 8/6=4,9=120000,10=1/1,4;
 9/5=7,14=2/13;
 6/7=2,8=2,9=2,10=2/1;
 99/5=1,9=1/99;
 Leave Link    1 at Wed Feb  8 14:50:06 2023, MaxMem=   754974720 cpu:               0.2 elap:               0.1
 (Enter /opt/cluster/programs/g16-c.01/g16/l101.exe)
 --------------
 Gaussian input
 --------------
 Symbolic Z-matrix:
 Charge =  0 Multiplicity = 1
 O                     0.        0.11751   0. 
 H                     0.79736  -0.50079   0. 
 H                    -0.53739  -0.61563   0. 
 
 ITRead=  0  0  0
 MicOpt= -1 -1 -1
 NAtoms=      3 NQM=        3 NQMF=       0 NMMI=      0 NMMIF=      0
                NMic=       0 NMicF=      0.
                    Isotopes and Nuclear Properties:
 (Nuclear quadrupole moments (NQMom) in fm**2, nuclear magnetic moments (NMagM)
  in nuclear magnetons)

  Atom         1           2           3
 IAtWgt=          16           1           1
 AtmWgt=  15.9949146   1.0078250   1.0078250
 NucSpn=           0           1           1
 AtZEff=  -0.0000000  -0.0000000  -0.0000000
 NQMom=    0.0000000   0.0000000   0.0000000
 NMagM=    0.0000000   2.7928460   2.7928460
 AtZNuc=   8.0000000   1.0000000   1.0000000
 Leave Link  101 at Wed Feb  8 14:50:07 2023, MaxMem=   754974720 cpu:               1.0 elap:               0.3
 (Enter /opt/cluster/programs/g16-c.01/g16/l202.exe)
                          Input orientation:                          
 ---------------------------------------------------------------------
 Center     Atomic      Atomic             Coordinates (Angstroms)
 Number     Number       Type             X           Y           Z
 ---------------------------------------------------------------------
      1          8           0        0.000000    0.117510    0.000000
      2          1           0        0.797362   -0.500790    0.000000
      3          1           0       -0.537387   -0.615631    0.000000
 ---------------------------------------------------------------------
                    Distance matrix (angstroms):
                    1          2          3
     1  O    0.000000
     2  H    1.009000   0.000000
     3  H    0.909000   1.339680   0.000000
 Stoichiometry    H2O
 Framework group  CS[SG(H2O)]
 Deg. of freedom     3
 Full point group                 CS      NOp   2
 Largest Abelian subgroup         CS      NOp   2
 Largest concise Abelian subgroup C1      NOp   1
                         Standard orientation:                         
 ---------------------------------------------------------------------
 Center     Atomic      Atomic             Coordinates (Angstroms)
 Number     Number       Type             X           Y           Z
 ---------------------------------------------------------------------
      1          8           0        0.000000    0.137622    0.000000
      2          1           0        0.666206   -0.620171    0.000000
      3          1           0       -0.666206   -0.480804   -0.000000
 ---------------------------------------------------------------------
 Rotational constants (GHZ):         647.4371663         520.2590760         288.4612022
 Leave Link  202 at Wed Feb  8 14:50:07 2023, MaxMem=   754974720 cpu:               0.1 elap:               0.0
 (Enter /opt/cluster/programs/g16-c.01/g16/l301.exe)
 Standard basis: Aug-CC-pVDZ (5D, 7F)
 Ernie: Thresh=  0.10000D-02 Tol=  0.10000D-05 Strict=F.
 Ernie:  2 primitive shells out of 39 were deleted.
 There are    32 symmetry adapted cartesian basis functions of A'  symmetry.
 There are    11 symmetry adapted cartesian basis functions of A"  symmetry.
 There are    30 symmetry adapted basis functions of A'  symmetry.
 There are    11 symmetry adapted basis functions of A"  symmetry.
    41 basis functions,    65 primitive gaussians,    43 cartesian basis functions
     5 alpha electrons        5 beta electrons
       nuclear repulsion energy         9.2478845092 Hartrees.
 IExCor=    0 DFT=F Ex=HF Corr=None ExCW=0 ScaHFX=  1.000000
 ScaDFX=  1.000000  1.000000  1.000000  1.000000 ScalE2=  1.000000  1.000000
 IRadAn=      5 IRanWt=     -1 IRanGd=            0 ICorTp=0 IEmpDi=  4
 NAtoms=    3 NActive=    3 NUniq=    3 SFac= 1.00D+00 NAtFMM=   60 NAOKFM=F Big=F
 Integral buffers will be    131072 words long.
 Raffenetti 1 integral format.
 Two-electron integral symmetry is turned on.
 Leave Link  301 at Wed Feb  8 14:50:07 2023, MaxMem=   754974720 cpu:               0.1 elap:               0.0
 (Enter /opt/cluster/programs/g16-c.01/g16/l302.exe)
 NPDir=0 NMtPBC=     1 NCelOv=     1 NCel=       1 NClECP=     1 NCelD=      1
         NCelK=      1 NCelE2=     1 NClLst=     1 CellRange=     0.0.
 One-electron integrals computed using PRISM.
 One-electron integral symmetry used in STVInt
 NBasis=    41 RedAO= T EigKep=  1.85D-03  NBF=    30    11
 NBsUse=    41 1.00D-06 EigRej= -1.00D+00 NBFU=    30    11
 Leave Link  302 at Wed Feb  8 14:50:07 2023, MaxMem=   754974720 cpu:               1.1 elap:               0.5
 (Enter /opt/cluster/programs/g16-c.01/g16/l303.exe)
 DipDrv:  MaxL=1.
 Leave Link  303 at Wed Feb  8 14:50:08 2023, MaxMem=   754974720 cpu:               0.4 elap:               0.2
 (Enter /opt/cluster/programs/g16-c.01/g16/l401.exe)
 ExpMin= 2.97D-02 ExpMax= 1.17D+04 ExpMxC= 4.01D+02 IAcc=3 IRadAn=         5 AccDes= 0.00D+00
 Harris functional with IExCor=  205 and IRadAn=       5 diagonalized for initial guess.
 HarFok:  IExCor=  205 AccDes= 0.00D+00 IRadAn=         5 IDoV= 1 UseB2=F ITyADJ=14
 ICtDFT=  3500011 ScaDFX=  1.000000  1.000000  1.000000  1.000000
 FoFCou: FMM=F IPFlag=           0 FMFlag=      100000 FMFlg1=           0
         NFxFlg=           0 DoJE=T BraDBF=F KetDBF=T FulRan=T
         wScrn=  0.000000 ICntrl=       500 IOpCl=  0 I1Cent=   200000004 NGrid=           0
         NMat0=    1 NMatS0=      1 NMatT0=    0 NMatD0=    1 NMtDS0=    0 NMtDT0=    0
 Petite list used in FoFCou.
 Harris En= -76.1131410465729    
 JPrj=0 DoOrth=F DoCkMO=F.
 Initial guess orbital symmetries:
       Occupied  (A') (A') (A') (A') (A")
       Virtual   (A') (A') (A') (A") (A') (A') (A') (A') (A') (A")
                 (A") (A') (A') (A') (A') (A') (A") (A') (A") (A')
                 (A") (A') (A') (A") (A') (A') (A") (A') (A') (A')
                 (A') (A") (A') (A") (A') (A')
 The electronic state of the initial guess is 1-A'.
 Leave Link  401 at Wed Feb  8 14:50:08 2023, MaxMem=   754974720 cpu:               1.2 elap:               0.4
 (Enter /opt/cluster/programs/g16-c.01/g16/l502.exe)
 Keep R1 ints in memory in symmetry-blocked form, NReq=1210682.
 FoFCou: FMM=F IPFlag=           0 FMFlag=           0 FMFlg1=           0
         NFxFlg=           0 DoJE=F BraDBF=F KetDBF=F FulRan=T
         wScrn=  0.000000 ICntrl=       600 IOpCl=  0 I1Cent=           0 NGrid=           0
         NMat0=    1 NMatS0=    861 NMatT0=    0 NMatD0=    1 NMtDS0=    0 NMtDT0=    0
 Petite list used in FoFCou.
 Closed shell SCF:
 Using DIIS extrapolation, IDIIS=  1040.
 NGot=   754974720 LenX=   754771907 LenY=   754769617
 Requested convergence on RMS density matrix=1.00D-08 within 200 cycles.
 Requested convergence on MAX density matrix=1.00D-06.
 Requested convergence on             energy=1.00D-06.
 No special actions if energy rises.

 Cycle   1  Pass 1  IDiag  1:
 E= -75.9508641627339    
 DIIS: error= 5.02D-02 at cycle   1 NSaved=   1.
 NSaved= 1 IEnMin= 1 EnMin= -75.9508641627339     IErMin= 1 ErrMin= 5.02D-02
 ErrMax= 5.02D-02  0.00D+00 EMaxC= 1.00D-01 BMatC= 1.17D-01 BMatP= 1.17D-01
 IDIUse=3 WtCom= 4.98D-01 WtEn= 5.02D-01
 Coeff-Com:  0.100D+01
 Coeff-En:   0.100D+01
 Coeff:      0.100D+01
 Gap=     0.462 Goal=   None    Shift=    0.000
 GapD=    0.462 DampG=2.000 DampE=0.500 DampFc=1.0000 IDamp=-1.
 RMSDP=6.36D-03 MaxDP=1.16D-01              OVMax= 1.23D-01

 Cycle   2  Pass 1  IDiag  1:
 E= -75.9948192115448     Delta-E=       -0.043955048811 Rises=F Damp=F
 DIIS: error= 4.06D-02 at cycle   2 NSaved=   2.
 NSaved= 2 IEnMin= 2 EnMin= -75.9948192115448     IErMin= 2 ErrMin= 4.06D-02
 ErrMax= 4.06D-02  0.00D+00 EMaxC= 1.00D-01 BMatC= 4.69D-02 BMatP= 1.17D-01
 IDIUse=3 WtCom= 5.94D-01 WtEn= 4.06D-01
 Coeff-Com:  0.377D+00 0.623D+00
 Coeff-En:   0.221D+00 0.779D+00
 Coeff:      0.314D+00 0.686D+00
 Gap=     0.564 Goal=   None    Shift=    0.000
 RMSDP=3.02D-03 MaxDP=5.48D-02 DE=-4.40D-02 OVMax= 5.94D-02

 Cycle   3  Pass 1  IDiag  1:
 E= -76.0271429330017     Delta-E=       -0.032323721457 Rises=F Damp=F
 DIIS: error= 4.48D-03 at cycle   3 NSaved=   3.
 NSaved= 3 IEnMin= 3 EnMin= -76.0271429330017     IErMin= 3 ErrMin= 4.48D-03
 ErrMax= 4.48D-03  0.00D+00 EMaxC= 1.00D-01 BMatC= 1.15D-03 BMatP= 4.69D-02
 IDIUse=3 WtCom= 9.55D-01 WtEn= 4.48D-02
 Coeff-Com: -0.391D-01 0.894D-01 0.950D+00
 Coeff-En:   0.000D+00 0.000D+00 0.100D+01
 Coeff:     -0.374D-01 0.854D-01 0.952D+00
 Gap=     0.546 Goal=   None    Shift=    0.000
 RMSDP=4.71D-04 MaxDP=8.38D-03 DE=-3.23D-02 OVMax= 9.31D-03

 Cycle   4  Pass 1  IDiag  1:
 E= -76.0280260385803     Delta-E=       -0.000883105579 Rises=F Damp=F
 DIIS: error= 7.06D-04 at cycle   4 NSaved=   4.
 NSaved= 4 IEnMin= 4 EnMin= -76.0280260385803     IErMin= 4 ErrMin= 7.06D-04
 ErrMax= 7.06D-04  0.00D+00 EMaxC= 1.00D-01 BMatC= 8.03D-06 BMatP= 1.15D-03
 IDIUse=3 WtCom= 9.93D-01 WtEn= 7.06D-03
 Coeff-Com:  0.101D-01-0.442D-01-0.353D+00 0.139D+01
 Coeff-En:   0.000D+00 0.000D+00 0.000D+00 0.100D+01
 Coeff:      0.101D-01-0.439D-01-0.350D+00 0.138D+01
 Gap=     0.547 Goal=   None    Shift=    0.000
 RMSDP=1.16D-04 MaxDP=1.28D-03 DE=-8.83D-04 OVMax= 2.22D-03

 Cycle   5  Pass 1  IDiag  1:
 E= -76.0280461127230     Delta-E=       -0.000020074143 Rises=F Damp=F
 DIIS: error= 1.83D-04 at cycle   5 NSaved=   5.
 NSaved= 5 IEnMin= 5 EnMin= -76.0280461127230     IErMin= 5 ErrMin= 1.83D-04
 ErrMax= 1.83D-04  0.00D+00 EMaxC= 1.00D-01 BMatC= 3.33D-07 BMatP= 8.03D-06
 IDIUse=3 WtCom= 9.98D-01 WtEn= 1.83D-03
 Coeff-Com: -0.106D-02 0.716D-02 0.558D-01-0.375D+00 0.131D+01
 Coeff-En:   0.000D+00 0.000D+00 0.000D+00 0.000D+00 0.100D+01
 Coeff:     -0.106D-02 0.714D-02 0.557D-01-0.374D+00 0.131D+01
 Gap=     0.547 Goal=   None    Shift=    0.000
 RMSDP=2.59D-05 MaxDP=4.18D-04 DE=-2.01D-05 OVMax= 5.74D-04

 Cycle   6  Pass 1  IDiag  1:
 E= -76.0280470879693     Delta-E=       -0.000000975246 Rises=F Damp=F
 DIIS: error= 2.75D-05 at cycle   6 NSaved=   6.
 NSaved= 6 IEnMin= 6 EnMin= -76.0280470879693     IErMin= 6 ErrMin= 2.75D-05
 ErrMax= 2.75D-05  0.00D+00 EMaxC= 1.00D-01 BMatC= 1.08D-08 BMatP= 3.33D-07
 IDIUse=1 WtCom= 1.00D+00 WtEn= 0.00D+00
 Coeff-Com: -0.307D-03 0.107D-02 0.807D-02-0.114D-01-0.195D+00 0.120D+01
 Coeff:     -0.307D-03 0.107D-02 0.807D-02-0.114D-01-0.195D+00 0.120D+01
 Gap=     0.548 Goal=   None    Shift=    0.000
 RMSDP=4.16D-06 MaxDP=7.84D-05 DE=-9.75D-07 OVMax= 1.05D-04

 Cycle   7  Pass 1  IDiag  1:
 E= -76.0280471185414     Delta-E=       -0.000000030572 Rises=F Damp=F
 DIIS: error= 4.76D-06 at cycle   7 NSaved=   7.
 NSaved= 7 IEnMin= 7 EnMin= -76.0280471185414     IErMin= 7 ErrMin= 4.76D-06
 ErrMax= 4.76D-06  0.00D+00 EMaxC= 1.00D-01 BMatC= 4.89D-10 BMatP= 1.08D-08
 IDIUse=1 WtCom= 1.00D+00 WtEn= 0.00D+00
 Coeff-Com:  0.126D-03-0.618D-03-0.502D-02 0.242D-01-0.291D-01-0.232D+00
 Coeff-Com:  0.124D+01
 Coeff:      0.126D-03-0.618D-03-0.502D-02 0.242D-01-0.291D-01-0.232D+00
 Coeff:      0.124D+01
 Gap=     0.548 Goal=   None    Shift=    0.000
 RMSDP=8.15D-07 MaxDP=1.10D-05 DE=-3.06D-08 OVMax= 2.04D-05

 Cycle   8  Pass 1  IDiag  1:
 E= -76.0280471196470     Delta-E=       -0.000000001106 Rises=F Damp=F
 DIIS: error= 6.03D-07 at cycle   8 NSaved=   8.
 NSaved= 8 IEnMin= 8 EnMin= -76.0280471196470     IErMin= 8 ErrMin= 6.03D-07
 ErrMax= 6.03D-07  0.00D+00 EMaxC= 1.00D-01 BMatC= 1.14D-11 BMatP= 4.89D-10
 IDIUse=1 WtCom= 1.00D+00 WtEn= 0.00D+00
 Coeff-Com: -0.218D-04 0.119D-03 0.102D-02-0.578D-02 0.124D-01 0.297D-01
 Coeff-Com: -0.341D+00 0.130D+01
 Coeff:     -0.218D-04 0.119D-03 0.102D-02-0.578D-02 0.124D-01 0.297D-01
 Coeff:     -0.341D+00 0.130D+01
 Gap=     0.548 Goal=   None    Shift=    0.000
 RMSDP=1.73D-07 MaxDP=2.25D-06 DE=-1.11D-09 OVMax= 3.22D-06

 Cycle   9  Pass 1  IDiag  1:
 E= -76.0280471196766     Delta-E=       -0.000000000030 Rises=F Damp=F
 DIIS: error= 1.00D-07 at cycle   9 NSaved=   9.
 NSaved= 9 IEnMin= 9 EnMin= -76.0280471196766     IErMin= 9 ErrMin= 1.00D-07
 ErrMax= 1.00D-07  0.00D+00 EMaxC= 1.00D-01 BMatC= 3.38D-13 BMatP= 1.14D-11
 IDIUse=1 WtCom= 1.00D+00 WtEn= 0.00D+00
 Coeff-Com:  0.247D-06-0.280D-05-0.424D-04 0.415D-03-0.166D-02 0.126D-02
 Coeff-Com:  0.339D-01-0.255D+00 0.122D+01
 Coeff:      0.247D-06-0.280D-05-0.424D-04 0.415D-03-0.166D-02 0.126D-02
 Coeff:      0.339D-01-0.255D+00 0.122D+01
 Gap=     0.548 Goal=   None    Shift=    0.000
 RMSDP=2.63D-08 MaxDP=2.95D-07 DE=-2.96D-11 OVMax= 4.29D-07

 Cycle  10  Pass 1  IDiag  1:
 E= -76.0280471196774     Delta-E=       -0.000000000001 Rises=F Damp=F
 DIIS: error= 2.41D-08 at cycle  10 NSaved=  10.
 NSaved=10 IEnMin=10 EnMin= -76.0280471196774     IErMin=10 ErrMin= 2.41D-08
 ErrMax= 2.41D-08  0.00D+00 EMaxC= 1.00D-01 BMatC= 1.89D-14 BMatP= 3.38D-13
 IDIUse=1 WtCom= 1.00D+00 WtEn= 0.00D+00
 Coeff-Com:  0.952D-06-0.492D-05-0.365D-04 0.162D-03-0.141D-03-0.165D-02
 Coeff-Com:  0.727D-02-0.177D-02-0.308D+00 0.130D+01
 Coeff:      0.952D-06-0.492D-05-0.365D-04 0.162D-03-0.141D-03-0.165D-02
 Coeff:      0.727D-02-0.177D-02-0.308D+00 0.130D+01
 Gap=     0.548 Goal=   None    Shift=    0.000
 RMSDP=7.54D-09 MaxDP=8.19D-08 DE=-7.82D-13 OVMax= 1.47D-07

 SCF Done:  E(RHF) =  -76.0280471197     A.U. after   10 cycles
            NFock= 10  Conv=0.75D-08     -V/T= 2.0009
 KE= 7.596269738494D+01 PE=-1.989748783548D+02 EE= 3.773624934102D+01
 Leave Link  502 at Wed Feb  8 14:50:09 2023, MaxMem=   754974720 cpu:               1.7 elap:               0.8
 (Enter /opt/cluster/programs/g16-c.01/g16/l801.exe)
 Windowed orbitals will be sorted by symmetry type.
 ExpMin= 2.97D-02 ExpMax= 1.17D+04 ExpMxC= 4.01D+02 IAcc=3 IRadAn=         5 AccDes= 0.00D+00
 HarFok:  IExCor=  205 AccDes= 0.00D+00 IRadAn=         5 IDoV=-2 UseB2=F ITyADJ=14
 ICtDFT= 12500011 ScaDFX=  1.000000  1.000000  1.000000  1.000000
 Largest valence mixing into a core orbital is  6.22D-05
 Largest core mixing into a valence orbital is  1.71D-05
 Range of M.O.s used for correlation:     2    41
 NBasis=    41 NAE=     5 NBE=     5 NFC=     1 NFV=     0
 NROrb=     40 NOA=     4 NOB=     4 NVA=    36 NVB=    36

 **** Warning!!: The largest alpha MO coefficient is  0.12178882D+02

 Leave Link  801 at Wed Feb  8 14:50:09 2023, MaxMem=   754974720 cpu:               0.3 elap:               0.1
 (Enter /opt/cluster/programs/g16-c.01/g16/l804.exe)
 Closed-shell transformation, MDV=   754974720 ITran=4 ISComp=2.
 Unit  1 TFree=         57024 TCopy=        242858.
 Semi-Direct transformation.
 ModeAB=           2 MOrb=             4 LenV=     754769647
 LASXX=        60334 LTotXX=       60334 LenRXX=       60334
 LTotAB=       65632 MaxLAS=      151360 LenRXY=      151360
 NonZer=      159520 LenScr=      785920 LnRSAI=           0
 LnScr1=           0 LExtra=           0 Total=       997614
 MaxDsk=          -1 SrtSym=           F ITran=            4
 DoSDTr:  NPSUse=  4
 JobTyp=0 Pass  1:  I=   1 to   4.
 (rs|ai) integrals will be sorted in core.
 Complete sort for first half transformation.
 First half transformation complete.
 Complete sort for second half transformation.
 Second half transformation complete.
 Spin components of T(2) and E(2):
     alpha-alpha T2 =       0.7858483530D-02 E2=     -0.2819597905D-01
     alpha-beta  T2 =       0.4437490000D-01 E2=     -0.1647303980D+00
     beta-beta   T2 =       0.7858483530D-02 E2=     -0.2819597905D-01
 ANorm=    0.1029607628D+01
 E2 =    -0.2211223561D+00 EUMP2 =    -0.76249169475827D+02
 Leave Link  804 at Wed Feb  8 14:50:09 2023, MaxMem=   754974720 cpu:               0.4 elap:               0.1
 (Enter /opt/cluster/programs/g16-c.01/g16/l913.exe)
 CIDS:  MDV=   754974720.
 Frozen-core window:  NFC=   1 NFV=   0.
 IFCWin=0 IBDFC=1 NFBD=     0     0 NFCmp=     0     0 NFFFC=     0     0
 Using DD3R+UMP44R for 1st iteration.
 Using DD4RQ for 2nd and later iterations.
 Keep R2 and R3 ints in memory in symmetry-blocked form, NReq=1234051.
 FoFCou: FMM=F IPFlag=           0 FMFlag=           0 FMFlg1=           0
         NFxFlg=           0 DoJE=F BraDBF=F KetDBF=F FulRan=T
         wScrn=  0.000000 ICntrl=       600 IOpCl=  0 I1Cent=           0 NGrid=           0
         NMat0=    1 NMatS0=    861 NMatT0=    0 NMatD0=    1 NMtDS0=    0 NMtDT0=    0
 Petite list used in FoFCou.
 CIDS: In Core Option IDoMem=           1.
 CCSD(T)
 =======
 Iterations=  50 Convergence= 0.100D-06
 Produce multiple copies of IABC intergrals
 Iteration Nr.   1
 **********************
 DD1Dir will call FoFMem   1 times, MxPair=        20
 NAB=    10 NAA=     0 NBB=     0.
 MP4(R+Q)=  0.25636973D-02
 Maximum subspace dimension=  5
 A-vector RMS=  5.4801951D-03 Max=  1.7066547D-02 conv= 1.00D-05.
 RLE energy=       -0.2228563020
 E3=       -0.43757201D-02        EUMP3=      -0.76253545196D+02
 E4(DQ)=   -0.15057992D-02        UMP4(DQ)=   -0.76255050995D+02
 E4(SDQ)=  -0.33253654D-02        UMP4(SDQ)=  -0.76256870561D+02
 VARIATIONAL ENERGIES WITH THE FIRST-ORDER WAVEFUNCTION:
 DE(Corr)= -0.22284285     E(Corr)=     -76.250889969    
 NORM(A)=   0.10305055D+01
 Iteration Nr.   2
 **********************
 DD1Dir will call FoFMem   1 times, MxPair=        20
 NAB=    10 NAA=     0 NBB=     0.
 A-vector RMS=  6.5539344D-04 Max=  3.0086622D-03 conv= 1.00D-05.
 RLE energy=       -0.2281778114
 DE(Corr)= -0.22756249     E(CORR)=     -76.255609610     Delta=-4.72D-03
 NORM(A)=   0.10327895D+01
 Iteration Nr.   3
 **********************
 DD1Dir will call FoFMem   1 times, MxPair=        20
 NAB=    10 NAA=     0 NBB=     0.
 A-vector RMS=  7.5398001D-04 Max=  2.8537820D-03 conv= 1.00D-05.
 RLE energy=       -0.2285649602
 DE(Corr)= -0.22812499     E(CORR)=     -76.256172112     Delta=-5.63D-04
 NORM(A)=   0.10333374D+01
 Iteration Nr.   4
 **********************
 DD1Dir will call FoFMem   1 times, MxPair=        20
 NAB=    10 NAA=     0 NBB=     0.
 A-vector RMS=  9.9206675D-05 Max=  3.5829212D-04 conv= 1.00D-05.
 RLE energy=       -0.2286052653
 DE(Corr)= -0.22857338     E(CORR)=     -76.256620500     Delta=-4.48D-04
 NORM(A)=   0.10334582D+01
 Iteration Nr.   5
 **********************
 DD1Dir will call FoFMem   1 times, MxPair=        20
 NAB=    10 NAA=     0 NBB=     0.
 A-vector RMS=  3.6663036D-05 Max=  1.5947036D-04 conv= 1.00D-05.
 RLE energy=       -0.2286117163
 DE(Corr)= -0.22860780     E(CORR)=     -76.256654923     Delta=-3.44D-05
 NORM(A)=   0.10334766D+01
 Iteration Nr.   6
 **********************
 DD1Dir will call FoFMem   1 times, MxPair=        20
 NAB=    10 NAA=     0 NBB=     0.
 A-vector RMS=  1.0538556D-05 Max=  4.3294774D-05 conv= 1.00D-05.
 RLE energy=       -0.2286089703
 DE(Corr)= -0.22861011     E(CORR)=     -76.256657226     Delta=-2.30D-06
 NORM(A)=   0.10334783D+01
 Iteration Nr.   7
 **********************
 DD1Dir will call FoFMem   1 times, MxPair=        20
 NAB=    10 NAA=     0 NBB=     0.
 A-vector RMS=  3.5881632D-06 Max=  1.2513073D-05 conv= 1.00D-05.
 RLE energy=       -0.2286094866
 DE(Corr)= -0.22861013     E(CORR)=     -76.256657253     Delta=-2.72D-08
 NORM(A)=   0.10334788D+01
 Iteration Nr.   8
 **********************
 DD1Dir will call FoFMem   1 times, MxPair=        20
 NAB=    10 NAA=     0 NBB=     0.
 A-vector RMS=  1.2345717D-06 Max=  5.5694807D-06 conv= 1.00D-05.
 RLE energy=       -0.2286097284
 DE(Corr)= -0.22860981     E(CORR)=     -76.256656929     Delta= 3.24D-07
 NORM(A)=   0.10334791D+01
 Iteration Nr.   9
 **********************
 DD1Dir will call FoFMem   1 times, MxPair=        20
 NAB=    10 NAA=     0 NBB=     0.
 A-vector RMS=  2.6215624D-07 Max=  1.0328111D-06 conv= 1.00D-05.
 RLE energy=       -0.2286099330
 DE(Corr)= -0.22860994     E(CORR)=     -76.256657062     Delta=-1.34D-07
 NORM(A)=   0.10334793D+01
 Iteration Nr.  10
 **********************
 DD1Dir will call FoFMem   1 times, MxPair=        20
 NAB=    10 NAA=     0 NBB=     0.
 A-vector RMS=  1.2090486D-07 Max=  4.2045207D-07 conv= 1.00D-05.
 RLE energy=       -0.2286099694
 DE(Corr)= -0.22860995     E(CORR)=     -76.256657073     Delta=-1.11D-08
 NORM(A)=   0.10334793D+01
 CI/CC converged in   10 iterations to DelEn=-1.11D-08 Conv= 1.00D-07 ErrA1= 1.21D-07 Conv= 1.00D-05
 Wavefunction amplitudes converged. E(Corr)=     -76.256657073    
 Largest amplitude= 3.52D-02
 IPart=  2 IA=    3   10.95% done.
 IPart=  4 IA=    5   21.27% done.
 IPart=  3 IA=    7   30.95% done.
 IPart=  2 IA=    9   40.00% done.
 IPart=  3 IA=   12   52.38% done.
 IPart=  3 IA=   15   63.33% done.
 IPart=  2 IA=   18   72.86% done.
 IPart=  4 IA=   21   80.95% done.
 IPart=  4 IA=   26   91.27% done.
 Time for triples=        0.40 seconds.
 T4(CCSD)= -0.57925985D-02
 T5(CCSD)=  0.41372715D-03
 CCSD(T)= -0.76262035945D+02
 Discarding MO integrals.
 Leave Link  913 at Wed Feb  8 14:50:09 2023, MaxMem=   754974720 cpu:               1.4 elap:               0.4
 (Enter /opt/cluster/programs/g16-c.01/g16/l601.exe)
 Copying SCF densities to generalized density rwf, IOpCl= 0 IROHF=0.

 **********************************************************************

            Population analysis using the SCF Density.

 **********************************************************************

 Orbital symmetries:
       Occupied  (A') (A') (A') (A') (A")
       Virtual   (A') (A') (A') (A") (A') (A') (A') (A') (A') (A")
                 (A") (A') (A') (A') (A') (A') (A") (A') (A") (A')
                 (A') (A") (A') (A") (A') (A") (A') (A') (A') (A')
                 (A') (A") (A') (A") (A') (A')
 The electronic state is 1-A'.
 Alpha  occ. eigenvalues --  -20.58343  -1.37100  -0.68564  -0.61585  -0.51392
 Alpha virt. eigenvalues --    0.03364   0.05936   0.17121   0.19851   0.22166
 Alpha virt. eigenvalues --    0.23615   0.28301   0.35756   0.37687   0.39265
 Alpha virt. eigenvalues --    0.41440   0.55438   0.63406   0.66247   0.78094
 Alpha virt. eigenvalues --    0.96542   1.11196   1.12461   1.14721   1.27861
 Alpha virt. eigenvalues --    1.42936   1.46280   1.62118   1.98683   2.04279
 Alpha virt. eigenvalues --    2.14243   2.14798   2.46842   2.63685   2.75472
 Alpha virt. eigenvalues --    3.05676   3.67537   3.69743   3.70307   3.98175
 Alpha virt. eigenvalues --    4.33285
          Condensed to atoms (all electrons):
               1          2          3
     1  O    7.639728   0.307233   0.341198
     2  H    0.307233   0.509690  -0.010334
     3  H    0.341198  -0.010334   0.574389
 Mulliken charges:
               1
     1  O   -0.288159
     2  H    0.193412
     3  H    0.094747
 Sum of Mulliken charges =   0.00000
 Mulliken charges with hydrogens summed into heavy atoms:
               1
     1  O    0.000000
 Electronic spatial extent (au):  <R**2>=             19.5261
 Charge=              0.0000 electrons
 Dipole moment (field-independent basis, Debye):
    X=             -0.0630    Y=             -2.2427    Z=              0.0000  Tot=              2.2436
 Quadrupole moment (field-independent basis, Debye-Ang):
   XX=             -4.9964   YY=             -5.7541   ZZ=             -7.5636
   XY=             -0.1822   XZ=              0.0000   YZ=             -0.0000
 Traceless Quadrupole moment (field-independent basis, Debye-Ang):
   XX=              1.1083   YY=              0.3506   ZZ=             -1.4589
   XY=             -0.1822   XZ=              0.0000   YZ=             -0.0000
 Octapole moment (field-independent basis, Debye-Ang**2):
  XXX=             -0.1690  YYY=             -1.5369  ZZZ=              0.0000  XYY=              0.1571
  XXY=             -1.2604  XXZ=              0.0000  XZZ=             -0.0622  YZZ=             -0.3222
  YYZ=              0.0000  XYZ=             -0.0000
 Hexadecapole moment (field-independent basis, Debye-Ang**3):
 XXXX=             -6.4435 YYYY=             -7.3645 ZZZZ=             -6.7151 XXXY=              0.0842
 XXXZ=             -0.0000 YYYX=             -0.0218 YYYZ=             -0.0000 ZZZX=             -0.0000
 ZZZY=              0.0000 XXYY=             -1.8360 XXZZ=             -2.3707 YYZZ=             -2.4453
 XXYZ=             -0.0000 YYXZ=              0.0000 ZZXY=              0.0668
 N-N= 9.247884509209D+00 E-N=-1.989748782709D+02  KE= 7.596269738494D+01
 Symmetry A'   KE= 7.150175814041D+01
 Symmetry A"   KE= 4.460939244533D+00
 Leave Link  601 at Wed Feb  8 14:50:10 2023, MaxMem=   754974720 cpu:               0.5 elap:               0.2
 (Enter /opt/cluster/programs/g16-c.01/g16/l9999.exe)
 Unable to Open any file for archive entry.
 1\1\GINC-NODE58\SP\RCCSD(T)-FC\Aug-CC-pVDZ\H2O1\BOITTIER\08-Feb-2023\0
 \\#P CCSD(T)/aug-cc-pVDZ scf(maxcycle=200)\\Gaussian input\\0,1\O,0,0.
 ,0.11751,0.\H,0,0.7973622306,-0.5007896629,0.\H,0,-0.537386867,-0.6156
 314292,0.\\Version=ES64L-G16RevC.01\State=1-A'\HF=-76.0280471\MP2=-76.
 2491695\MP3=-76.2535452\MP4D=-76.2576147\MP4DQ=-76.255051\MP4SDQ=-76.2
 568706\CCSD=-76.2566571\CCSD(T)=-76.2620359\RMSD=7.540e-09\PG=CS [SG(H
 2O1)]\\@
 The archive entry for this job was punched.


 I LOVE THOSE WHO LONG FOR THE IMPOSSIBLE.

                                 -- GOETHE
 Job cpu time:       0 days  0 hours  0 minutes  8.6 seconds.
 Elapsed time:       0 days  0 hours  0 minutes  3.3 seconds.
 File lengths (MBytes):  RWF=     15 Int=      0 D2E=      0 Chk=      1 Scr=      1
 Normal termination of Gaussian 16 at Wed Feb  8 14:50:10 2023.
