 Entering Gaussian System, Link 0=/opt/cluster/programs/g16-c.01/g16/g16
 Input=/scratch/boittier/jobs/tmp.7261801/gaussian_126_water_ccsdt_atz.com
 Output=/scratch/boittier/jobs/tmp.7261801/gaussian_126_water_ccsdt_atz.out
 Initial command:
 /opt/cluster/programs/g16-c.01/g16/l1.exe "/scratch/boittier/jobs/tmp.7261801/Gau-172900.inp" -scrdir="/scratch/boittier/jobs/tmp.7261801/"
 Entering Link 1 = /opt/cluster/programs/g16-c.01/g16/l1.exe PID=    172901.
  
 Copyright (c) 1988-2019, Gaussian, Inc.  All Rights Reserved.
  
 This is part of the Gaussian(R) 16 program.  It is based on
 the Gaussian(R) 09 system (copyright 2009, Gaussian, Inc.),
 the Gaussian(R) 03 system (copyright 2003, Gaussian, Inc.),
 the Gaussian(R) 98 system (copyright 1998, Gaussian, Inc.),
 the Gaussian(R) 94 system (copyright 1995, Gaussian, Inc.),
 the Gaussian 92(TM) system (copyright 1992, Gaussian, Inc.),
 the Gaussian 90(TM) system (copyright 1990, Gaussian, Inc.),
 the Gaussian 88(TM) system (copyright 1988, Gaussian, Inc.),
 the Gaussian 86(TM) system (copyright 1986, Carnegie Mellon
 University), and the Gaussian 82(TM) system (copyright 1983,
 Carnegie Mellon University). Gaussian is a federally registered
 trademark of Gaussian, Inc.
  
 This software contains proprietary and confidential information,
 including trade secrets, belonging to Gaussian, Inc.
  
 This software is provided under written license and may be
 used, copied, transmitted, or stored only in accord with that
 written license.
  
 The following legend is applicable only to US Government
 contracts under FAR:
  
                    RESTRICTED RIGHTS LEGEND
  
 Use, reproduction and disclosure by the US Government is
 subject to restrictions as set forth in subparagraphs (a)
 and (c) of the Commercial Computer Software - Restricted
 Rights clause in FAR 52.227-19.
  
 Gaussian, Inc.
 340 Quinnipiac St., Bldg. 40, Wallingford CT 06492
  
  
 ---------------------------------------------------------------
 Warning -- This program may not be used in any manner that
 competes with the business of Gaussian, Inc. or will provide
 assistance to any competitor of Gaussian, Inc.  The licensee
 of this program is prohibited from giving any competitor of
 Gaussian, Inc. access to this program.  By using this program,
 the user acknowledges that Gaussian, Inc. is engaged in the
 business of creating and licensing software in the field of
 computational chemistry and represents and warrants to the
 licensee that it is not a competitor of Gaussian, Inc. and that
 it will not use this program in any manner prohibited above.
 ---------------------------------------------------------------
  

 Cite this work as:
 Gaussian 16, Revision C.01,
 M. J. Frisch, G. W. Trucks, H. B. Schlegel, G. E. Scuseria, 
 M. A. Robb, J. R. Cheeseman, G. Scalmani, V. Barone, 
 G. A. Petersson, H. Nakatsuji, X. Li, M. Caricato, A. V. Marenich, 
 J. Bloino, B. G. Janesko, R. Gomperts, B. Mennucci, H. P. Hratchian, 
 J. V. Ortiz, A. F. Izmaylov, J. L. Sonnenberg, D. Williams-Young, 
 F. Ding, F. Lipparini, F. Egidi, J. Goings, B. Peng, A. Petrone, 
 T. Henderson, D. Ranasinghe, V. G. Zakrzewski, J. Gao, N. Rega, 
 G. Zheng, W. Liang, M. Hada, M. Ehara, K. Toyota, R. Fukuda, 
 J. Hasegawa, M. Ishida, T. Nakajima, Y. Honda, O. Kitao, H. Nakai, 
 T. Vreven, K. Throssell, J. A. Montgomery, Jr., J. E. Peralta, 
 F. Ogliaro, M. J. Bearpark, J. J. Heyd, E. N. Brothers, K. N. Kudin, 
 V. N. Staroverov, T. A. Keith, R. Kobayashi, J. Normand, 
 K. Raghavachari, A. P. Rendell, J. C. Burant, S. S. Iyengar, 
 J. Tomasi, M. Cossi, J. M. Millam, M. Klene, C. Adamo, R. Cammi, 
 J. W. Ochterski, R. L. Martin, K. Morokuma, O. Farkas, 
 J. B. Foresman, and D. J. Fox, Gaussian, Inc., Wallingford CT, 2019.
 
 ******************************************
 Gaussian 16:  ES64L-G16RevC.01  3-Jul-2019
                 8-Feb-2023 
 ******************************************
 %nproc=4
 Will use up to    4 processors via shared memory.
 %mem=5760MB
 %chk=gaussian_126_water_ccsdt_atz.chk
 ----------------------------------------
 #P CCSD(T)/aug-cc-pVTZ scf(maxcycle=200)
 ----------------------------------------
 1/38=1,172=1/1;
 2/12=2,17=6,18=5,40=1/2;
 3/5=16,6=1,7=10,11=9,25=1,30=1/1,2,3;
 4//1;
 5/5=2,7=200,38=5/2;
 8/6=4,9=120000,10=1/1,4;
 9/5=7,14=2/13;
 6/7=2,8=2,9=2,10=2/1;
 99/5=1,9=1/99;
 Leave Link    1 at Wed Feb  8 13:55:10 2023, MaxMem=   754974720 cpu:               0.1 elap:               0.0
 (Enter /opt/cluster/programs/g16-c.01/g16/l101.exe)
 --------------
 Gaussian input
 --------------
 Symbolic Z-matrix:
 Charge =  0 Multiplicity = 1
 O                     0.        0.11751   0. 
 H                     0.79736  -0.50079   0. 
 H                    -0.63419  -0.53371   0. 
 
 ITRead=  0  0  0
 MicOpt= -1 -1 -1
 NAtoms=      3 NQM=        3 NQMF=       0 NMMI=      0 NMMIF=      0
                NMic=       0 NMicF=      0.
                    Isotopes and Nuclear Properties:
 (Nuclear quadrupole moments (NQMom) in fm**2, nuclear magnetic moments (NMagM)
  in nuclear magnetons)

  Atom         1           2           3
 IAtWgt=          16           1           1
 AtmWgt=  15.9949146   1.0078250   1.0078250
 NucSpn=           0           1           1
 AtZEff=  -0.0000000  -0.0000000  -0.0000000
 NQMom=    0.0000000   0.0000000   0.0000000
 NMagM=    0.0000000   2.7928460   2.7928460
 AtZNuc=   8.0000000   1.0000000   1.0000000
 Leave Link  101 at Wed Feb  8 13:55:10 2023, MaxMem=   754974720 cpu:               0.3 elap:               0.2
 (Enter /opt/cluster/programs/g16-c.01/g16/l202.exe)
                          Input orientation:                          
 ---------------------------------------------------------------------
 Center     Atomic      Atomic             Coordinates (Angstroms)
 Number     Number       Type             X           Y           Z
 ---------------------------------------------------------------------
      1          8           0        0.000000    0.117510    0.000000
      2          1           0        0.797362   -0.500790    0.000000
      3          1           0       -0.634191   -0.533707    0.000000
 ---------------------------------------------------------------------
                    Distance matrix (angstroms):
                    1          2          3
     1  O    0.000000
     2  H    1.009000   0.000000
     3  H    0.909000   1.431931   0.000000
 Stoichiometry    H2O
 Framework group  CS[SG(H2O)]
 Deg. of freedom     3
 Full point group                 CS      NOp   2
 Largest Abelian subgroup         CS      NOp   2
 Largest concise Abelian subgroup C1      NOp   1
                         Standard orientation:                         
 ---------------------------------------------------------------------
 Center     Atomic      Atomic             Coordinates (Angstroms)
 Number     Number       Type             X           Y           Z
 ---------------------------------------------------------------------
      1          8           0        0.000000    0.127996    0.000000
      2          1           0        0.712035   -0.586908    0.000000
      3          1           0       -0.712035   -0.437060   -0.000000
 ---------------------------------------------------------------------
 Rotational constants (GHZ):         714.1312986         477.3498179         286.1064608
 Leave Link  202 at Wed Feb  8 13:55:10 2023, MaxMem=   754974720 cpu:               0.2 elap:               0.1
 (Enter /opt/cluster/programs/g16-c.01/g16/l301.exe)
 Standard basis: Aug-CC-pVTZ (5D, 7F)
 Ernie: Thresh=  0.10000D-02 Tol=  0.10000D-05 Strict=F.
 Ernie:  3 primitive shells out of 52 were deleted.
 There are    73 symmetry adapted cartesian basis functions of A'  symmetry.
 There are    32 symmetry adapted cartesian basis functions of A"  symmetry.
 There are    62 symmetry adapted basis functions of A'  symmetry.
 There are    30 symmetry adapted basis functions of A"  symmetry.
    92 basis functions,   126 primitive gaussians,   105 cartesian basis functions
     5 alpha electrons        5 beta electrons
       nuclear repulsion energy         9.2224368559 Hartrees.
 IExCor=    0 DFT=F Ex=HF Corr=None ExCW=0 ScaHFX=  1.000000
 ScaDFX=  1.000000  1.000000  1.000000  1.000000 ScalE2=  1.000000  1.000000
 IRadAn=      5 IRanWt=     -1 IRanGd=            0 ICorTp=0 IEmpDi=  4
 NAtoms=    3 NActive=    3 NUniq=    3 SFac= 1.00D+00 NAtFMM=   60 NAOKFM=F Big=F
 Integral buffers will be    131072 words long.
 Raffenetti 1 integral format.
 Two-electron integral symmetry is turned on.
 Leave Link  301 at Wed Feb  8 13:55:10 2023, MaxMem=   754974720 cpu:               0.3 elap:               0.1
 (Enter /opt/cluster/programs/g16-c.01/g16/l302.exe)
 NPDir=0 NMtPBC=     1 NCelOv=     1 NCel=       1 NClECP=     1 NCelD=      1
         NCelK=      1 NCelE2=     1 NClLst=     1 CellRange=     0.0.
 One-electron integrals computed using PRISM.
 One-electron integral symmetry used in STVInt
 NBasis=    92 RedAO= T EigKep=  3.56D-04  NBF=    62    30
 NBsUse=    92 1.00D-06 EigRej= -1.00D+00 NBFU=    62    30
 Leave Link  302 at Wed Feb  8 13:55:11 2023, MaxMem=   754974720 cpu:               3.0 elap:               1.5
 (Enter /opt/cluster/programs/g16-c.01/g16/l303.exe)
 DipDrv:  MaxL=1.
 Leave Link  303 at Wed Feb  8 13:55:12 2023, MaxMem=   754974720 cpu:               0.5 elap:               0.2
 (Enter /opt/cluster/programs/g16-c.01/g16/l401.exe)
 ExpMin= 2.53D-02 ExpMax= 1.53D+04 ExpMxC= 5.22D+02 IAcc=3 IRadAn=         5 AccDes= 0.00D+00
 Harris functional with IExCor=  205 and IRadAn=       5 diagonalized for initial guess.
 HarFok:  IExCor=  205 AccDes= 0.00D+00 IRadAn=         5 IDoV= 1 UseB2=F ITyADJ=14
 ICtDFT=  3500011 ScaDFX=  1.000000  1.000000  1.000000  1.000000
 FoFCou: FMM=F IPFlag=           0 FMFlag=      100000 FMFlg1=           0
         NFxFlg=           0 DoJE=T BraDBF=F KetDBF=T FulRan=T
         wScrn=  0.000000 ICntrl=       500 IOpCl=  0 I1Cent=   200000004 NGrid=           0
         NMat0=    1 NMatS0=      1 NMatT0=    0 NMatD0=    1 NMtDS0=    0 NMtDT0=    0
 Petite list used in FoFCou.
 Harris En= -76.1471206650126    
 JPrj=0 DoOrth=F DoCkMO=F.
 Initial guess orbital symmetries:
       Occupied  (A') (A') (A') (A') (A")
       Virtual   (A') (A') (A') (A") (A') (A') (A') (A') (A") (A")
                 (A') (A') (A') (A') (A') (A') (A') (A") (A") (A')
                 (A") (A') (A') (A") (A") (A') (A') (A') (A') (A")
                 (A') (A') (A") (A') (A') (A") (A") (A') (A') (A')
                 (A') (A") (A") (A') (A') (A') (A") (A') (A") (A')
                 (A') (A') (A") (A') (A') (A") (A") (A') (A") (A')
                 (A') (A") (A") (A') (A') (A') (A") (A') (A') (A')
                 (A") (A') (A') (A') (A") (A') (A") (A") (A') (A")
                 (A') (A") (A') (A') (A') (A') (A')
 The electronic state of the initial guess is 1-A'.
 Leave Link  401 at Wed Feb  8 13:55:13 2023, MaxMem=   754974720 cpu:               2.3 elap:               1.1
 (Enter /opt/cluster/programs/g16-c.01/g16/l502.exe)
 Keep R1 ints in memory in symmetry-blocked form, NReq=13818732.
 FoFCou: FMM=F IPFlag=           0 FMFlag=           0 FMFlg1=           0
         NFxFlg=           0 DoJE=F BraDBF=F KetDBF=F FulRan=T
         wScrn=  0.000000 ICntrl=       600 IOpCl=  0 I1Cent=           0 NGrid=           0
         NMat0=    1 NMatS0=   4278 NMatT0=    0 NMatD0=    1 NMtDS0=    0 NMtDT0=    0
 Petite list used in FoFCou.
 Closed shell SCF:
 Using DIIS extrapolation, IDIIS=  1040.
 NGot=   754974720 LenX=   750285684 LenY=   750274218
 Requested convergence on RMS density matrix=1.00D-08 within 200 cycles.
 Requested convergence on MAX density matrix=1.00D-06.
 Requested convergence on             energy=1.00D-06.
 No special actions if energy rises.

 Cycle   1  Pass 1  IDiag  1:
 E= -75.9622871025440    
 DIIS: error= 5.87D-02 at cycle   1 NSaved=   1.
 NSaved= 1 IEnMin= 1 EnMin= -75.9622871025440     IErMin= 1 ErrMin= 5.87D-02
 ErrMax= 5.87D-02  0.00D+00 EMaxC= 1.00D-01 BMatC= 2.05D-01 BMatP= 2.05D-01
 IDIUse=3 WtCom= 4.13D-01 WtEn= 5.87D-01
 Coeff-Com:  0.100D+01
 Coeff-En:   0.100D+01
 Coeff:      0.100D+01
 Gap=     0.454 Goal=   None    Shift=    0.000
 GapD=    0.454 DampG=2.000 DampE=0.500 DampFc=1.0000 IDamp=-1.
 RMSDP=2.19D-03 MaxDP=4.89D-02              OVMax= 1.27D-01

 Cycle   2  Pass 1  IDiag  1:
 E= -76.0149558778726     Delta-E=       -0.052668775329 Rises=F Damp=F
 DIIS: error= 3.91D-02 at cycle   2 NSaved=   2.
 NSaved= 2 IEnMin= 2 EnMin= -76.0149558778726     IErMin= 2 ErrMin= 3.91D-02
 ErrMax= 3.91D-02  0.00D+00 EMaxC= 1.00D-01 BMatC= 6.15D-02 BMatP= 2.05D-01
 IDIUse=3 WtCom= 6.09D-01 WtEn= 3.91D-01
 Coeff-Com:  0.327D+00 0.673D+00
 Coeff-En:   0.208D+00 0.792D+00
 Coeff:      0.280D+00 0.720D+00
 Gap=     0.568 Goal=   None    Shift=    0.000
 RMSDP=1.33D-03 MaxDP=3.57D-02 DE=-5.27D-02 OVMax= 6.61D-02

 Cycle   3  Pass 1  IDiag  1:
 E= -76.0513794811132     Delta-E=       -0.036423603241 Rises=F Damp=F
 DIIS: error= 7.96D-03 at cycle   3 NSaved=   3.
 NSaved= 3 IEnMin= 3 EnMin= -76.0513794811132     IErMin= 3 ErrMin= 7.96D-03
 ErrMax= 7.96D-03  0.00D+00 EMaxC= 1.00D-01 BMatC= 2.88D-03 BMatP= 6.15D-02
 IDIUse=3 WtCom= 9.20D-01 WtEn= 7.96D-02
 Coeff-Com: -0.311D-01 0.146D+00 0.885D+00
 Coeff-En:   0.000D+00 0.000D+00 0.100D+01
 Coeff:     -0.286D-01 0.134D+00 0.894D+00
 Gap=     0.539 Goal=   None    Shift=    0.000
 RMSDP=2.22D-04 MaxDP=4.32D-03 DE=-3.64D-02 OVMax= 1.28D-02

 Cycle   4  Pass 1  IDiag  1:
 E= -76.0531916224390     Delta-E=       -0.001812141326 Rises=F Damp=F
 DIIS: error= 6.69D-04 at cycle   4 NSaved=   4.
 NSaved= 4 IEnMin= 4 EnMin= -76.0531916224390     IErMin= 4 ErrMin= 6.69D-04
 ErrMax= 6.69D-04  0.00D+00 EMaxC= 1.00D-01 BMatC= 1.48D-05 BMatP= 2.88D-03
 IDIUse=3 WtCom= 9.93D-01 WtEn= 6.69D-03
 Coeff-Com:  0.733D-02-0.564D-01-0.256D+00 0.131D+01
 Coeff-En:   0.000D+00 0.000D+00 0.000D+00 0.100D+01
 Coeff:      0.728D-02-0.560D-01-0.254D+00 0.130D+01
 Gap=     0.541 Goal=   None    Shift=    0.000
 RMSDP=3.98D-05 MaxDP=7.27D-04 DE=-1.81D-03 OVMax= 2.35D-03

 Cycle   5  Pass 1  IDiag  1:
 E= -76.0532180001058     Delta-E=       -0.000026377667 Rises=F Damp=F
 DIIS: error= 1.91D-04 at cycle   5 NSaved=   5.
 NSaved= 5 IEnMin= 5 EnMin= -76.0532180001058     IErMin= 5 ErrMin= 1.91D-04
 ErrMax= 1.91D-04  0.00D+00 EMaxC= 1.00D-01 BMatC= 7.46D-07 BMatP= 1.48D-05
 IDIUse=3 WtCom= 9.98D-01 WtEn= 1.91D-03
 Coeff-Com:  0.210D-03 0.260D-02 0.953D-02-0.284D+00 0.127D+01
 Coeff-En:   0.000D+00 0.000D+00 0.000D+00 0.000D+00 0.100D+01
 Coeff:      0.210D-03 0.260D-02 0.952D-02-0.283D+00 0.127D+01
 Gap=     0.541 Goal=   None    Shift=    0.000
 RMSDP=1.15D-05 MaxDP=2.42D-04 DE=-2.64D-05 OVMax= 7.48D-04

 Cycle   6  Pass 1  IDiag  1:
 E= -76.0532198188031     Delta-E=       -0.000001818697 Rises=F Damp=F
 DIIS: error= 2.66D-05 at cycle   6 NSaved=   6.
 NSaved= 6 IEnMin= 6 EnMin= -76.0532198188031     IErMin= 6 ErrMin= 2.66D-05
 ErrMax= 2.66D-05  0.00D+00 EMaxC= 1.00D-01 BMatC= 2.23D-08 BMatP= 7.46D-07
 IDIUse=1 WtCom= 1.00D+00 WtEn= 0.00D+00
 Coeff-Com: -0.278D-03 0.130D-02 0.547D-02 0.200D-01-0.319D+00 0.129D+01
 Coeff:     -0.278D-03 0.130D-02 0.547D-02 0.200D-01-0.319D+00 0.129D+01
 Gap=     0.541 Goal=   None    Shift=    0.000
 RMSDP=2.34D-06 MaxDP=5.43D-05 DE=-1.82D-06 OVMax= 1.50D-04

 Cycle   7  Pass 1  IDiag  1:
 E= -76.0532198838384     Delta-E=       -0.000000065035 Rises=F Damp=F
 DIIS: error= 4.39D-06 at cycle   7 NSaved=   7.
 NSaved= 7 IEnMin= 7 EnMin= -76.0532198838384     IErMin= 7 ErrMin= 4.39D-06
 ErrMax= 4.39D-06  0.00D+00 EMaxC= 1.00D-01 BMatC= 9.94D-10 BMatP= 2.23D-08
 IDIUse=1 WtCom= 1.00D+00 WtEn= 0.00D+00
 Coeff-Com:  0.220D-04-0.312D-03-0.142D-02 0.160D-01-0.393D-01-0.108D+00
 Coeff-Com:  0.113D+01
 Coeff:      0.220D-04-0.312D-03-0.142D-02 0.160D-01-0.393D-01-0.108D+00
 Coeff:      0.113D+01
 Gap=     0.541 Goal=   None    Shift=    0.000
 RMSDP=3.54D-07 MaxDP=6.71D-06 DE=-6.50D-08 OVMax= 2.60D-05

 Cycle   8  Pass 1  IDiag  1:
 E= -76.0532198858328     Delta-E=       -0.000000001994 Rises=F Damp=F
 DIIS: error= 9.24D-07 at cycle   8 NSaved=   8.
 NSaved= 8 IEnMin= 8 EnMin= -76.0532198858328     IErMin= 8 ErrMin= 9.24D-07
 ErrMax= 9.24D-07  0.00D+00 EMaxC= 1.00D-01 BMatC= 4.75D-11 BMatP= 9.94D-10
 IDIUse=1 WtCom= 1.00D+00 WtEn= 0.00D+00
 Coeff-Com:  0.783D-05 0.104D-04 0.113D-03-0.477D-02 0.234D-01-0.282D-01
 Coeff-Com: -0.316D+00 0.133D+01
 Coeff:      0.783D-05 0.104D-04 0.113D-03-0.477D-02 0.234D-01-0.282D-01
 Coeff:     -0.316D+00 0.133D+01
 Gap=     0.541 Goal=   None    Shift=    0.000
 RMSDP=1.12D-07 MaxDP=2.32D-06 DE=-1.99D-09 OVMax= 6.68D-06

 Cycle   9  Pass 1  IDiag  1:
 E= -76.0532198859530     Delta-E=       -0.000000000120 Rises=F Damp=F
 DIIS: error= 1.72D-07 at cycle   9 NSaved=   9.
 NSaved= 9 IEnMin= 9 EnMin= -76.0532198859530     IErMin= 9 ErrMin= 1.72D-07
 ErrMax= 1.72D-07  0.00D+00 EMaxC= 1.00D-01 BMatC= 9.67D-13 BMatP= 4.75D-11
 IDIUse=1 WtCom= 1.00D+00 WtEn= 0.00D+00
 Coeff-Com: -0.218D-05 0.427D-05-0.802D-06 0.756D-03-0.433D-02 0.806D-02
 Coeff-Com:  0.538D-01-0.328D+00 0.127D+01
 Coeff:     -0.218D-05 0.427D-05-0.802D-06 0.756D-03-0.433D-02 0.806D-02
 Coeff:      0.538D-01-0.328D+00 0.127D+01
 Gap=     0.541 Goal=   None    Shift=    0.000
 RMSDP=1.79D-08 MaxDP=3.61D-07 DE=-1.20D-10 OVMax= 8.28D-07

 Cycle  10  Pass 1  IDiag  1:
 E= -76.0532198859552     Delta-E=       -0.000000000002 Rises=F Damp=F
 DIIS: error= 3.74D-08 at cycle  10 NSaved=  10.
 NSaved=10 IEnMin=10 EnMin= -76.0532198859552     IErMin=10 ErrMin= 3.74D-08
 ErrMax= 3.74D-08  0.00D+00 EMaxC= 1.00D-01 BMatC= 4.38D-14 BMatP= 9.67D-13
 IDIUse=1 WtCom= 1.00D+00 WtEn= 0.00D+00
 Coeff-Com:  0.249D-06-0.138D-05-0.369D-05-0.168D-04 0.237D-03-0.920D-03
 Coeff-Com: -0.156D-02 0.274D-01-0.297D+00 0.127D+01
 Coeff:      0.249D-06-0.138D-05-0.369D-05-0.168D-04 0.237D-03-0.920D-03
 Coeff:     -0.156D-02 0.274D-01-0.297D+00 0.127D+01
 Gap=     0.541 Goal=   None    Shift=    0.000
 RMSDP=4.00D-09 MaxDP=8.04D-08 DE=-2.22D-12 OVMax= 2.09D-07

 SCF Done:  E(RHF) =  -76.0532198860     A.U. after   10 cycles
            NFock= 10  Conv=0.40D-08     -V/T= 2.0009
 KE= 7.598374075583D+01 PE=-1.990445274805D+02 EE= 3.778512998275D+01
 Leave Link  502 at Wed Feb  8 13:55:16 2023, MaxMem=   754974720 cpu:               9.5 elap:               3.2
 (Enter /opt/cluster/programs/g16-c.01/g16/l801.exe)
 Windowed orbitals will be sorted by symmetry type.
 ExpMin= 2.53D-02 ExpMax= 1.53D+04 ExpMxC= 5.22D+02 IAcc=3 IRadAn=         5 AccDes= 0.00D+00
 HarFok:  IExCor=  205 AccDes= 0.00D+00 IRadAn=         5 IDoV=-2 UseB2=F ITyADJ=14
 ICtDFT= 12500011 ScaDFX=  1.000000  1.000000  1.000000  1.000000
 Largest valence mixing into a core orbital is  1.11D-04
 Largest core mixing into a valence orbital is  1.68D-05
 Range of M.O.s used for correlation:     2    92
 NBasis=    92 NAE=     5 NBE=     5 NFC=     1 NFV=     0
 NROrb=     91 NOA=     4 NOB=     4 NVA=    87 NVB=    87

 **** Warning!!: The largest alpha MO coefficient is  0.15851711D+02

 Leave Link  801 at Wed Feb  8 13:55:16 2023, MaxMem=   754974720 cpu:               0.6 elap:               0.3
 (Enter /opt/cluster/programs/g16-c.01/g16/l804.exe)
 Closed-shell transformation, MDV=   754974720 ITran=4 ISComp=2.
 Unit  1 TFree=        277501 TCopy=        343607.
 Semi-Direct transformation.
 ModeAB=           2 MOrb=             4 LenV=     754586778
 LASXX=       736380 LTotXX=      736380 LenRXX=      736380
 LTotAB=      763744 MaxLAS=     2025660 LenRXY=     2025660
 NonZer=     2107560 LenScr=     3929600 LnRSAI=           0
 LnScr1=           0 LExtra=           0 Total=      6691640
 MaxDsk=          -1 SrtSym=           F ITran=            4
 DoSDTr:  NPSUse=  4
 JobTyp=0 Pass  1:  I=   1 to   4.
 (rs|ai) integrals will be sorted in core.
 Complete sort for first half transformation.
 First half transformation complete.
 Complete sort for second half transformation.
 Second half transformation complete.
 Spin components of T(2) and E(2):
     alpha-alpha T2 =       0.8187990595D-02 E2=     -0.3268189668D-01
     alpha-beta  T2 =       0.4758066883D-01 E2=     -0.2038635380D+00
     beta-beta   T2 =       0.8187990595D-02 E2=     -0.3268189668D-01
 ANorm=    0.1031482743D+01
 E2 =    -0.2692273314D+00 EUMP2 =    -0.76322447217343D+02
 Leave Link  804 at Wed Feb  8 13:55:22 2023, MaxMem=   754974720 cpu:              11.8 elap:               5.9
 (Enter /opt/cluster/programs/g16-c.01/g16/l913.exe)
 CIDS:  MDV=   754974720.
 Frozen-core window:  NFC=   1 NFV=   0.
 IFCWin=0 IBDFC=1 NFBD=     0     0 NFCmp=     0     0 NFFFC=     0     0
 Using DD3R+UMP44R for 1st iteration.
 Using DD4RQ for 2nd and later iterations.
 Keep R2 and R3 ints in memory in symmetry-blocked form, NReq=13979827.
 FoFCou: FMM=F IPFlag=           0 FMFlag=           0 FMFlg1=           0
         NFxFlg=           0 DoJE=F BraDBF=F KetDBF=F FulRan=T
         wScrn=  0.000000 ICntrl=       600 IOpCl=  0 I1Cent=           0 NGrid=           0
         NMat0=    1 NMatS0=   4278 NMatT0=    0 NMatD0=    1 NMtDS0=    0 NMtDT0=    0
 Petite list used in FoFCou.
 CIDS: In Core Option IDoMem=           1.
 CCSD(T)
 =======
 Iterations=  50 Convergence= 0.100D-06
 Produce multiple copies of IABC intergrals
 Iteration Nr.   1
 **********************
 DD1Dir will call FoFMem   1 times, MxPair=        20
 NAB=    10 NAA=     0 NBB=     0.
 MP4(R+Q)=  0.41149032D-02
 Maximum subspace dimension=  5
 A-vector RMS=  2.8847429D-03 Max=  1.2194256D-02 conv= 1.00D-05.
 RLE energy=       -0.2676178225
 E3=       -0.25378826D-02        EUMP3=      -0.76324985100D+02
 E4(DQ)=   -0.63256509D-03        UMP4(DQ)=   -0.76325617665D+02
 E4(SDQ)=  -0.25690942D-02        UMP4(SDQ)=  -0.76327554194D+02
 VARIATIONAL ENERGIES WITH THE FIRST-ORDER WAVEFUNCTION:
 DE(Corr)= -0.26760815     E(Corr)=     -76.320828035    
 NORM(A)=   0.10312620D+01
 Iteration Nr.   2
 **********************
 DD1Dir will call FoFMem   1 times, MxPair=        20
 NAB=    10 NAA=     0 NBB=     0.
 A-vector RMS=  3.0992200D-04 Max=  2.1894737D-03 conv= 1.00D-05.
 RLE energy=       -0.2734894371
 DE(Corr)= -0.27310060     E(CORR)=     -76.326320483     Delta=-5.49D-03
 NORM(A)=   0.10334232D+01
 Iteration Nr.   3
 **********************
 DD1Dir will call FoFMem   1 times, MxPair=        20
 NAB=    10 NAA=     0 NBB=     0.
 A-vector RMS=  4.0133527D-04 Max=  2.2312962D-03 conv= 1.00D-05.
 RLE energy=       -0.2738075214
 DE(Corr)= -0.27342314     E(CORR)=     -76.326643025     Delta=-3.23D-04
 NORM(A)=   0.10338554D+01
 Iteration Nr.   4
 **********************
 DD1Dir will call FoFMem   1 times, MxPair=        20
 NAB=    10 NAA=     0 NBB=     0.
 A-vector RMS=  6.2775388D-05 Max=  3.7162336D-04 conv= 1.00D-05.
 RLE energy=       -0.2738422427
 DE(Corr)= -0.27381353     E(CORR)=     -76.327033414     Delta=-3.90D-04
 NORM(A)=   0.10339709D+01
 Iteration Nr.   5
 **********************
 DD1Dir will call FoFMem   1 times, MxPair=        20
 NAB=    10 NAA=     0 NBB=     0.
 A-vector RMS=  3.0040331D-05 Max=  1.9110018D-04 conv= 1.00D-05.
 RLE energy=       -0.2738546089
 DE(Corr)= -0.27384914     E(CORR)=     -76.327069031     Delta=-3.56D-05
 NORM(A)=   0.10339937D+01
 Iteration Nr.   6
 **********************
 DD1Dir will call FoFMem   1 times, MxPair=        20
 NAB=    10 NAA=     0 NBB=     0.
 A-vector RMS=  7.0151897D-06 Max=  4.1627109D-05 conv= 1.00D-05.
 RLE energy=       -0.2738509844
 DE(Corr)= -0.27385189     E(CORR)=     -76.327071778     Delta=-2.75D-06
 NORM(A)=   0.10339956D+01
 Iteration Nr.   7
 **********************
 DD1Dir will call FoFMem   1 times, MxPair=        20
 NAB=    10 NAA=     0 NBB=     0.
 A-vector RMS=  2.3368666D-06 Max=  1.1141883D-05 conv= 1.00D-05.
 RLE energy=       -0.2738510087
 DE(Corr)= -0.27385189     E(CORR)=     -76.327071773     Delta= 4.85D-09
 NORM(A)=   0.10339962D+01
 Iteration Nr.   8
 **********************
 DD1Dir will call FoFMem   1 times, MxPair=        20
 NAB=    10 NAA=     0 NBB=     0.
 A-vector RMS=  9.1463958D-07 Max=  5.5091021D-06 conv= 1.00D-05.
 RLE energy=       -0.2738515352
 DE(Corr)= -0.27385164     E(CORR)=     -76.327071525     Delta= 2.48D-07
 NORM(A)=   0.10339965D+01
 Iteration Nr.   9
 **********************
 DD1Dir will call FoFMem   1 times, MxPair=        20
 NAB=    10 NAA=     0 NBB=     0.
 A-vector RMS=  2.0627681D-07 Max=  1.0422356D-06 conv= 1.00D-05.
 RLE energy=       -0.2738516292
 DE(Corr)= -0.27385165     E(CORR)=     -76.327071531     Delta=-6.11D-09
 NORM(A)=   0.10339967D+01
 CI/CC converged in    9 iterations to DelEn=-6.11D-09 Conv= 1.00D-07 ErrA1= 2.06D-07 Conv= 1.00D-05
 Wavefunction amplitudes converged. E(Corr)=     -76.327071531    
 Largest amplitude= 1.95D-02
 IPart=  2 IA=    6   11.23% done.
 IPart=  3 IA=   11   21.79% done.
 IPart=  3 IA=   16   31.68% done.
 IPart=  1 IA=   21   40.90% done.
 IPart=  3 IA=   27   51.08% done.
 IPart=  2 IA=   33   60.30% done.
 IPart=  1 IA=   41   71.10% done.
 IPart=  2 IA=   49   80.19% done.
 IPart=  3 IA=   61   90.62% done.
 Time for triples=        6.27 seconds.
 T4(CCSD)= -0.90427490D-02
 T5(CCSD)=  0.32798881D-03
 CCSD(T)= -0.76335786292D+02
 Discarding MO integrals.
 Leave Link  913 at Wed Feb  8 13:55:25 2023, MaxMem=   754974720 cpu:              12.4 elap:               3.1
 (Enter /opt/cluster/programs/g16-c.01/g16/l601.exe)
 Copying SCF densities to generalized density rwf, IOpCl= 0 IROHF=0.

 **********************************************************************

            Population analysis using the SCF Density.

 **********************************************************************

 Orbital symmetries:
       Occupied  (A') (A') (A') (A') (A")
       Virtual   (A') (A') (A') (A") (A') (A') (A') (A') (A") (A")
                 (A') (A') (A') (A') (A') (A') (A') (A") (A") (A')
                 (A") (A') (A") (A') (A") (A') (A') (A') (A') (A")
                 (A') (A") (A') (A') (A') (A") (A") (A') (A') (A')
                 (A') (A") (A") (A') (A') (A") (A') (A') (A') (A")
                 (A') (A') (A") (A') (A') (A") (A') (A") (A") (A')
                 (A') (A") (A") (A') (A') (A') (A") (A') (A') (A')
                 (A") (A') (A') (A') (A") (A') (A") (A') (A") (A")
                 (A') (A") (A') (A') (A') (A') (A')
 The electronic state is 1-A'.
 Alpha  occ. eigenvalues --  -20.57031  -1.36119  -0.70166  -0.59937  -0.51274
 Alpha virt. eigenvalues --    0.02874   0.04823   0.13435   0.15970   0.17560
 Alpha virt. eigenvalues --    0.18537   0.22458   0.24616   0.26832   0.29284
 Alpha virt. eigenvalues --    0.30588   0.36757   0.43176   0.47016   0.59467
 Alpha virt. eigenvalues --    0.66684   0.70282   0.72942   0.73013   0.83805
 Alpha virt. eigenvalues --    0.85583   0.89289   0.90762   0.91044   0.92487
 Alpha virt. eigenvalues --    0.94021   0.94996   1.01005   1.06029   1.07840
 Alpha virt. eigenvalues --    1.10654   1.18244   1.19082   1.26851   1.48292
 Alpha virt. eigenvalues --    1.50256   1.57567   1.81016   1.88131   1.93680
 Alpha virt. eigenvalues --    2.16002   2.26554   2.31972   2.32806   2.41256
 Alpha virt. eigenvalues --    2.42440   2.42566   2.53054   2.68839   2.69510
 Alpha virt. eigenvalues --    2.75173   2.81745   2.87524   3.59557   3.72255
 Alpha virt. eigenvalues --    4.05718   4.06588   4.09149   4.18836   4.30044
 Alpha virt. eigenvalues --    4.35293   4.38077   4.41647   4.56037   4.72077
 Alpha virt. eigenvalues --    4.86482   5.09820   5.14968   5.23100   5.42051
 Alpha virt. eigenvalues --    5.59596   5.62897   6.25568   6.49349   6.70904
 Alpha virt. eigenvalues --    6.99131   7.08245   7.19661   7.23506   7.32581
 Alpha virt. eigenvalues --    7.40225   7.43302   7.57551   7.77150   8.04836
 Alpha virt. eigenvalues --    8.82744  15.96976
          Condensed to atoms (all electrons):
               1          2          3
     1  O    7.904971   0.266680   0.261052
     2  H    0.266680   0.447055   0.026513
     3  H    0.261052   0.026513   0.539483
 Mulliken charges:
               1
     1  O   -0.432703
     2  H    0.259752
     3  H    0.172952
 Sum of Mulliken charges =  -0.00000
 Mulliken charges with hydrogens summed into heavy atoms:
               1
     1  O   -0.000000
 Electronic spatial extent (au):  <R**2>=             19.4823
 Charge=             -0.0000 electrons
 Dipole moment (field-independent basis, Debye):
    X=             -0.0535    Y=             -2.1127    Z=             -0.0000  Tot=              2.1133
 Quadrupole moment (field-independent basis, Debye-Ang):
   XX=             -4.6135   YY=             -5.9707   ZZ=             -7.5482
   XY=             -0.2211   XZ=              0.0000   YZ=              0.0000
 Traceless Quadrupole moment (field-independent basis, Debye-Ang):
   XX=              1.4306   YY=              0.0734   ZZ=             -1.5040
   XY=             -0.2211   XZ=              0.0000   YZ=              0.0000
 Octapole moment (field-independent basis, Debye-Ang**2):
  XXX=             -0.1577  YYY=             -1.3334  ZZZ=             -0.0000  XYY=              0.1802
  XXY=             -1.3530  XXZ=             -0.0000  XZZ=             -0.0530  YZZ=             -0.2638
  YYZ=             -0.0000  XYZ=             -0.0000
 Hexadecapole moment (field-independent basis, Debye-Ang**3):
 XXXX=             -6.2051 YYYY=             -7.2731 ZZZZ=             -6.6924 XXXY=              0.0584
 XXXZ=             -0.0000 YYYX=             -0.0220 YYYZ=             -0.0000 ZZZX=             -0.0000
 ZZZY=             -0.0000 XXYY=             -1.7984 XXZZ=             -2.4004 YYZZ=             -2.4066
 XXYZ=              0.0000 YYXZ=             -0.0000 ZZXY=              0.0688
 N-N= 9.222436855946D+00 E-N=-1.990445273244D+02  KE= 7.598374075583D+01
 Symmetry A'   KE= 7.150735821192D+01
 Symmetry A"   KE= 4.476382543909D+00
 Leave Link  601 at Wed Feb  8 13:55:26 2023, MaxMem=   754974720 cpu:               0.7 elap:               0.4
 (Enter /opt/cluster/programs/g16-c.01/g16/l9999.exe)
 Unable to Open any file for archive entry.
 1\1\GINC-NODE62\SP\RCCSD(T)-FC\Aug-CC-pVTZ\H2O1\BOITTIER\08-Feb-2023\0
 \\#P CCSD(T)/aug-cc-pVTZ scf(maxcycle=200)\\Gaussian input\\0,1\O,0,0.
 ,0.11751,0.\H,0,0.7973622306,-0.5007896629,0.\H,0,-0.6341906211,-0.533
 7067505,0.\\Version=ES64L-G16RevC.01\State=1-A'\HF=-76.0532199\MP2=-76
 .3224472\MP3=-76.3249851\MP4D=-76.3297326\MP4DQ=-76.3256177\MP4SDQ=-76
 .3275542\CCSD=-76.3270715\CCSD(T)=-76.3357863\RMSD=4.004e-09\PG=CS [SG
 (H2O1)]\\@
 The archive entry for this job was punched.


 DO NOT LET SELFISH MEN OR GREEDY INTERESTS SKIN YOUR COUNTRY OF ITS
 BEAUTY, ITS RICHES, OR ITS ROMANCE. -- THEODORE ROOSEVELT
 Job cpu time:       0 days  0 hours  0 minutes 41.9 seconds.
 Elapsed time:       0 days  0 hours  0 minutes 16.3 seconds.
 File lengths (MBytes):  RWF=     75 Int=      0 D2E=      0 Chk=      2 Scr=      1
 Normal termination of Gaussian 16 at Wed Feb  8 13:55:27 2023.
