 Entering Gaussian System, Link 0=/opt/cluster/programs/g16-c.01/g16/g16
 Input=/scratch/boittier/jobs/tmp.7312069/gaussian_61_water_hf_adz.com
 Output=/scratch/boittier/jobs/tmp.7312069/gaussian_61_water_hf_adz.out
 Initial command:
 /opt/cluster/programs/g16-c.01/g16/l1.exe "/scratch/boittier/jobs/tmp.7312069/Gau-184712.inp" -scrdir="/scratch/boittier/jobs/tmp.7312069/"
 Entering Link 1 = /opt/cluster/programs/g16-c.01/g16/l1.exe PID=    184713.
  
 Copyright (c) 1988-2019, Gaussian, Inc.  All Rights Reserved.
  
 This is part of the Gaussian(R) 16 program.  It is based on
 the Gaussian(R) 09 system (copyright 2009, Gaussian, Inc.),
 the Gaussian(R) 03 system (copyright 2003, Gaussian, Inc.),
 the Gaussian(R) 98 system (copyright 1998, Gaussian, Inc.),
 the Gaussian(R) 94 system (copyright 1995, Gaussian, Inc.),
 the Gaussian 92(TM) system (copyright 1992, Gaussian, Inc.),
 the Gaussian 90(TM) system (copyright 1990, Gaussian, Inc.),
 the Gaussian 88(TM) system (copyright 1988, Gaussian, Inc.),
 the Gaussian 86(TM) system (copyright 1986, Carnegie Mellon
 University), and the Gaussian 82(TM) system (copyright 1983,
 Carnegie Mellon University). Gaussian is a federally registered
 trademark of Gaussian, Inc.
  
 This software contains proprietary and confidential information,
 including trade secrets, belonging to Gaussian, Inc.
  
 This software is provided under written license and may be
 used, copied, transmitted, or stored only in accord with that
 written license.
  
 The following legend is applicable only to US Government
 contracts under FAR:
  
                    RESTRICTED RIGHTS LEGEND
  
 Use, reproduction and disclosure by the US Government is
 subject to restrictions as set forth in subparagraphs (a)
 and (c) of the Commercial Computer Software - Restricted
 Rights clause in FAR 52.227-19.
  
 Gaussian, Inc.
 340 Quinnipiac St., Bldg. 40, Wallingford CT 06492
  
  
 ---------------------------------------------------------------
 Warning -- This program may not be used in any manner that
 competes with the business of Gaussian, Inc. or will provide
 assistance to any competitor of Gaussian, Inc.  The licensee
 of this program is prohibited from giving any competitor of
 Gaussian, Inc. access to this program.  By using this program,
 the user acknowledges that Gaussian, Inc. is engaged in the
 business of creating and licensing software in the field of
 computational chemistry and represents and warrants to the
 licensee that it is not a competitor of Gaussian, Inc. and that
 it will not use this program in any manner prohibited above.
 ---------------------------------------------------------------
  

 Cite this work as:
 Gaussian 16, Revision C.01,
 M. J. Frisch, G. W. Trucks, H. B. Schlegel, G. E. Scuseria, 
 M. A. Robb, J. R. Cheeseman, G. Scalmani, V. Barone, 
 G. A. Petersson, H. Nakatsuji, X. Li, M. Caricato, A. V. Marenich, 
 J. Bloino, B. G. Janesko, R. Gomperts, B. Mennucci, H. P. Hratchian, 
 J. V. Ortiz, A. F. Izmaylov, J. L. Sonnenberg, D. Williams-Young, 
 F. Ding, F. Lipparini, F. Egidi, J. Goings, B. Peng, A. Petrone, 
 T. Henderson, D. Ranasinghe, V. G. Zakrzewski, J. Gao, N. Rega, 
 G. Zheng, W. Liang, M. Hada, M. Ehara, K. Toyota, R. Fukuda, 
 J. Hasegawa, M. Ishida, T. Nakajima, Y. Honda, O. Kitao, H. Nakai, 
 T. Vreven, K. Throssell, J. A. Montgomery, Jr., J. E. Peralta, 
 F. Ogliaro, M. J. Bearpark, J. J. Heyd, E. N. Brothers, K. N. Kudin, 
 V. N. Staroverov, T. A. Keith, R. Kobayashi, J. Normand, 
 K. Raghavachari, A. P. Rendell, J. C. Burant, S. S. Iyengar, 
 J. Tomasi, M. Cossi, J. M. Millam, M. Klene, C. Adamo, R. Cammi, 
 J. W. Ochterski, R. L. Martin, K. Morokuma, O. Farkas, 
 J. B. Foresman, and D. J. Fox, Gaussian, Inc., Wallingford CT, 2019.
 
 ******************************************
 Gaussian 16:  ES64L-G16RevC.01  3-Jul-2019
                20-Feb-2023 
 ******************************************
 %nproc=4
 Will use up to    4 processors via shared memory.
 %mem=5760MB
 %chk=gaussian_61_water_hf_adz.chk
 -----------------------------------
 #P HF/aug-cc-pVDZ scf(maxcycle=200)
 -----------------------------------
 1/38=1,172=1/1;
 2/12=2,17=6,18=5,40=1/2;
 3/5=16,7=10,11=9,25=1,30=1/1,2,3;
 4//1;
 5/5=2,7=200,38=5/2;
 6/7=2,8=2,9=2,10=2,28=1/1;
 99/5=1,9=1/99;
 Leave Link    1 at Mon Feb 20 10:27:34 2023, MaxMem=   754974720 cpu:               0.2 elap:               0.1
 (Enter /opt/cluster/programs/g16-c.01/g16/l101.exe)
 --------------
 Gaussian input
 --------------
 Symbolic Z-matrix:
 Charge =  0 Multiplicity = 1
 O                     0.        0.11751   0. 
 H                     0.75785  -0.47015   0. 
 H                    -0.51147  -0.63394   0. 
 
 ITRead=  0  0  0
 MicOpt= -1 -1 -1
 NAtoms=      3 NQM=        3 NQMF=       0 NMMI=      0 NMMIF=      0
                NMic=       0 NMicF=      0.
                    Isotopes and Nuclear Properties:
 (Nuclear quadrupole moments (NQMom) in fm**2, nuclear magnetic moments (NMagM)
  in nuclear magnetons)

  Atom         1           2           3
 IAtWgt=          16           1           1
 AtmWgt=  15.9949146   1.0078250   1.0078250
 NucSpn=           0           1           1
 AtZEff=  -0.0000000  -0.0000000  -0.0000000
 NQMom=    0.0000000   0.0000000   0.0000000
 NMagM=    0.0000000   2.7928460   2.7928460
 AtZNuc=   8.0000000   1.0000000   1.0000000
 Leave Link  101 at Mon Feb 20 10:27:34 2023, MaxMem=   754974720 cpu:               0.8 elap:               0.4
 (Enter /opt/cluster/programs/g16-c.01/g16/l202.exe)
                          Input orientation:                          
 ---------------------------------------------------------------------
 Center     Atomic      Atomic             Coordinates (Angstroms)
 Number     Number       Type             X           Y           Z
 ---------------------------------------------------------------------
      1          8           0        0.000000    0.117510    0.000000
      2          1           0        0.757850   -0.470150    0.000000
      3          1           0       -0.511473   -0.633939    0.000000
 ---------------------------------------------------------------------
                    Distance matrix (angstroms):
                    1          2          3
     1  O    0.000000
     2  H    0.959000   0.000000
     3  H    0.909000   1.279847   0.000000
 Stoichiometry    H2O
 Framework group  CS[SG(H2O)]
 Deg. of freedom     3
 Full point group                 CS      NOp   2
 Largest Abelian subgroup         CS      NOp   2
 Largest concise Abelian subgroup C1      NOp   1
                         Standard orientation:                         
 ---------------------------------------------------------------------
 Center     Atomic      Atomic             Coordinates (Angstroms)
 Number     Number       Type             X           Y           Z
 ---------------------------------------------------------------------
      1          8           0        0.000000    0.136159   -0.000000
      2          1           0        0.639004   -0.578933    0.000000
      3          1           0       -0.639004   -0.510336   -0.000000
 ---------------------------------------------------------------------
 Rotational constants (GHZ):         645.3309111         579.6026551         305.3516695
 Leave Link  202 at Mon Feb 20 10:27:34 2023, MaxMem=   754974720 cpu:               0.1 elap:               0.1
 (Enter /opt/cluster/programs/g16-c.01/g16/l301.exe)
 Standard basis: Aug-CC-pVDZ (5D, 7F)
 Ernie: Thresh=  0.10000D-02 Tol=  0.10000D-05 Strict=F.
 Ernie:  2 primitive shells out of 39 were deleted.
 There are    32 symmetry adapted cartesian basis functions of A'  symmetry.
 There are    11 symmetry adapted cartesian basis functions of A"  symmetry.
 There are    30 symmetry adapted basis functions of A'  symmetry.
 There are    11 symmetry adapted basis functions of A"  symmetry.
    41 basis functions,    65 primitive gaussians,    43 cartesian basis functions
     5 alpha electrons        5 beta electrons
       nuclear repulsion energy         9.4851028225 Hartrees.
 IExCor=    0 DFT=F Ex=HF Corr=None ExCW=0 ScaHFX=  1.000000
 ScaDFX=  1.000000  1.000000  1.000000  1.000000 ScalE2=  1.000000  1.000000
 IRadAn=      5 IRanWt=     -1 IRanGd=            0 ICorTp=0 IEmpDi=  4
 NAtoms=    3 NActive=    3 NUniq=    3 SFac= 1.00D+00 NAtFMM=   60 NAOKFM=F Big=F
 Integral buffers will be    131072 words long.
 Raffenetti 1 integral format.
 Two-electron integral symmetry is turned on.
 Leave Link  301 at Mon Feb 20 10:27:34 2023, MaxMem=   754974720 cpu:               0.1 elap:               0.1
 (Enter /opt/cluster/programs/g16-c.01/g16/l302.exe)
 NPDir=0 NMtPBC=     1 NCelOv=     1 NCel=       1 NClECP=     1 NCelD=      1
         NCelK=      1 NCelE2=     1 NClLst=     1 CellRange=     0.0.
 One-electron integrals computed using PRISM.
 One-electron integral symmetry used in STVInt
 NBasis=    41 RedAO= T EigKep=  1.53D-03  NBF=    30    11
 NBsUse=    41 1.00D-06 EigRej= -1.00D+00 NBFU=    30    11
 Leave Link  302 at Mon Feb 20 10:27:35 2023, MaxMem=   754974720 cpu:               1.6 elap:               0.8
 (Enter /opt/cluster/programs/g16-c.01/g16/l303.exe)
 DipDrv:  MaxL=1.
 Leave Link  303 at Mon Feb 20 10:27:35 2023, MaxMem=   754974720 cpu:               0.5 elap:               0.3
 (Enter /opt/cluster/programs/g16-c.01/g16/l401.exe)
 ExpMin= 2.97D-02 ExpMax= 1.17D+04 ExpMxC= 4.01D+02 IAcc=3 IRadAn=         5 AccDes= 0.00D+00
 Harris functional with IExCor=  205 and IRadAn=       5 diagonalized for initial guess.
 HarFok:  IExCor=  205 AccDes= 0.00D+00 IRadAn=         5 IDoV= 1 UseB2=F ITyADJ=14
 ICtDFT=  3500011 ScaDFX=  1.000000  1.000000  1.000000  1.000000
 FoFCou: FMM=F IPFlag=           0 FMFlag=      100000 FMFlg1=           0
         NFxFlg=           0 DoJE=T BraDBF=F KetDBF=T FulRan=T
         wScrn=  0.000000 ICntrl=       500 IOpCl=  0 I1Cent=   200000004 NGrid=           0
         NMat0=    1 NMatS0=      1 NMatT0=    0 NMatD0=    1 NMtDS0=    0 NMtDT0=    0
 Petite list used in FoFCou.
 Harris En= -76.1131361368481    
 JPrj=0 DoOrth=F DoCkMO=F.
 Initial guess orbital symmetries:
       Occupied  (A') (A') (A') (A') (A")
       Virtual   (A') (A') (A') (A") (A') (A') (A') (A') (A') (A")
                 (A") (A') (A') (A') (A') (A') (A") (A') (A") (A')
                 (A") (A') (A') (A") (A') (A') (A") (A') (A') (A')
                 (A') (A") (A') (A") (A') (A')
 The electronic state of the initial guess is 1-A'.
 Leave Link  401 at Mon Feb 20 10:27:36 2023, MaxMem=   754974720 cpu:               2.1 elap:               1.0
 (Enter /opt/cluster/programs/g16-c.01/g16/l502.exe)
 Keep R1 ints in memory in symmetry-blocked form, NReq=1210696.
 FoFCou: FMM=F IPFlag=           0 FMFlag=           0 FMFlg1=           0
         NFxFlg=           0 DoJE=F BraDBF=F KetDBF=F FulRan=T
         wScrn=  0.000000 ICntrl=       600 IOpCl=  0 I1Cent=           0 NGrid=           0
         NMat0=    1 NMatS0=    861 NMatT0=    0 NMatD0=    1 NMtDS0=    0 NMtDT0=    0
 Petite list used in FoFCou.
 Closed shell SCF:
 Using DIIS extrapolation, IDIIS=  1040.
 NGot=   754974720 LenX=   754771907 LenY=   754769617
 Requested convergence on RMS density matrix=1.00D-08 within 200 cycles.
 Requested convergence on MAX density matrix=1.00D-06.
 Requested convergence on             energy=1.00D-06.
 No special actions if energy rises.

 Cycle   1  Pass 1  IDiag  1:
 E= -75.9500909340641    
 DIIS: error= 5.12D-02 at cycle   1 NSaved=   1.
 NSaved= 1 IEnMin= 1 EnMin= -75.9500909340641     IErMin= 1 ErrMin= 5.12D-02
 ErrMax= 5.12D-02  0.00D+00 EMaxC= 1.00D-01 BMatC= 1.20D-01 BMatP= 1.20D-01
 IDIUse=3 WtCom= 4.88D-01 WtEn= 5.12D-01
 Coeff-Com:  0.100D+01
 Coeff-En:   0.100D+01
 Coeff:      0.100D+01
 Gap=     0.461 Goal=   None    Shift=    0.000
 GapD=    0.461 DampG=2.000 DampE=0.500 DampFc=1.0000 IDamp=-1.
 RMSDP=6.45D-03 MaxDP=1.19D-01              OVMax= 1.22D-01

 Cycle   2  Pass 1  IDiag  1:
 E= -75.9962594333485     Delta-E=       -0.046168499284 Rises=F Damp=F
 DIIS: error= 3.99D-02 at cycle   2 NSaved=   2.
 NSaved= 2 IEnMin= 2 EnMin= -75.9962594333485     IErMin= 2 ErrMin= 3.99D-02
 ErrMax= 3.99D-02  0.00D+00 EMaxC= 1.00D-01 BMatC= 4.61D-02 BMatP= 1.20D-01
 IDIUse=3 WtCom= 6.01D-01 WtEn= 3.99D-01
 Coeff-Com:  0.372D+00 0.628D+00
 Coeff-En:   0.204D+00 0.796D+00
 Coeff:      0.305D+00 0.695D+00
 Gap=     0.568 Goal=   None    Shift=    0.000
 RMSDP=3.00D-03 MaxDP=5.45D-02 DE=-4.62D-02 OVMax= 5.87D-02

 Cycle   3  Pass 1  IDiag  1:
 E= -76.0276645224463     Delta-E=       -0.031405089098 Rises=F Damp=F
 DIIS: error= 4.70D-03 at cycle   3 NSaved=   3.
 NSaved= 3 IEnMin= 3 EnMin= -76.0276645224463     IErMin= 3 ErrMin= 4.70D-03
 ErrMax= 4.70D-03  0.00D+00 EMaxC= 1.00D-01 BMatC= 1.18D-03 BMatP= 4.61D-02
 IDIUse=3 WtCom= 9.53D-01 WtEn= 4.70D-02
 Coeff-Com: -0.380D-01 0.929D-01 0.945D+00
 Coeff-En:   0.000D+00 0.000D+00 0.100D+01
 Coeff:     -0.362D-01 0.886D-01 0.948D+00
 Gap=     0.549 Goal=   None    Shift=    0.000
 RMSDP=4.72D-04 MaxDP=8.36D-03 DE=-3.14D-02 OVMax= 9.26D-03

 Cycle   4  Pass 1  IDiag  1:
 E= -76.0285433096019     Delta-E=       -0.000878787156 Rises=F Damp=F
 DIIS: error= 6.25D-04 at cycle   4 NSaved=   4.
 NSaved= 4 IEnMin= 4 EnMin= -76.0285433096019     IErMin= 4 ErrMin= 6.25D-04
 ErrMax= 6.25D-04  0.00D+00 EMaxC= 1.00D-01 BMatC= 6.42D-06 BMatP= 1.18D-03
 IDIUse=3 WtCom= 9.94D-01 WtEn= 6.25D-03
 Coeff-Com:  0.977D-02-0.436D-01-0.341D+00 0.137D+01
 Coeff-En:   0.000D+00 0.000D+00 0.000D+00 0.100D+01
 Coeff:      0.971D-02-0.434D-01-0.338D+00 0.137D+01
 Gap=     0.550 Goal=   None    Shift=    0.000
 RMSDP=1.02D-04 MaxDP=1.07D-03 DE=-8.79D-04 OVMax= 1.90D-03

 Cycle   5  Pass 1  IDiag  1:
 E= -76.0285585675577     Delta-E=       -0.000015257956 Rises=F Damp=F
 DIIS: error= 1.59D-04 at cycle   5 NSaved=   5.
 NSaved= 5 IEnMin= 5 EnMin= -76.0285585675577     IErMin= 5 ErrMin= 1.59D-04
 ErrMax= 1.59D-04  0.00D+00 EMaxC= 1.00D-01 BMatC= 2.35D-07 BMatP= 6.42D-06
 IDIUse=3 WtCom= 9.98D-01 WtEn= 1.59D-03
 Coeff-Com: -0.181D-02 0.101D-01 0.784D-01-0.456D+00 0.137D+01
 Coeff-En:   0.000D+00 0.000D+00 0.000D+00 0.000D+00 0.100D+01
 Coeff:     -0.181D-02 0.101D-01 0.783D-01-0.456D+00 0.137D+01
 Gap=     0.550 Goal=   None    Shift=    0.000
 RMSDP=2.23D-05 MaxDP=3.68D-04 DE=-1.53D-05 OVMax= 4.98D-04

 Cycle   6  Pass 1  IDiag  1:
 E= -76.0285592460893     Delta-E=       -0.000000678532 Rises=F Damp=F
 DIIS: error= 1.86D-05 at cycle   6 NSaved=   6.
 NSaved= 6 IEnMin= 6 EnMin= -76.0285592460893     IErMin= 6 ErrMin= 1.86D-05
 ErrMax= 1.86D-05  0.00D+00 EMaxC= 1.00D-01 BMatC= 6.21D-09 BMatP= 2.35D-07
 IDIUse=1 WtCom= 1.00D+00 WtEn= 0.00D+00
 Coeff-Com:  0.668D-05-0.378D-03-0.374D-02 0.434D-01-0.277D+00 0.124D+01
 Coeff:      0.668D-05-0.378D-03-0.374D-02 0.434D-01-0.277D+00 0.124D+01
 Gap=     0.550 Goal=   None    Shift=    0.000
 RMSDP=2.68D-06 MaxDP=5.42D-05 DE=-6.79D-07 OVMax= 7.32D-05

 Cycle   7  Pass 1  IDiag  1:
 E= -76.0285592618375     Delta-E=       -0.000000015748 Rises=F Damp=F
 DIIS: error= 3.29D-06 at cycle   7 NSaved=   7.
 NSaved= 7 IEnMin= 7 EnMin= -76.0285592618375     IErMin= 7 ErrMin= 3.29D-06
 ErrMax= 3.29D-06  0.00D+00 EMaxC= 1.00D-01 BMatC= 2.47D-10 BMatP= 6.21D-09
 IDIUse=1 WtCom= 1.00D+00 WtEn= 0.00D+00
 Coeff-Com:  0.999D-04-0.519D-03-0.400D-02 0.204D-01-0.386D-01-0.149D+00
 Coeff-Com:  0.117D+01
 Coeff:      0.999D-04-0.519D-03-0.400D-02 0.204D-01-0.386D-01-0.149D+00
 Coeff:      0.117D+01
 Gap=     0.550 Goal=   None    Shift=    0.000
 RMSDP=5.55D-07 MaxDP=8.32D-06 DE=-1.57D-08 OVMax= 1.32D-05

 Cycle   8  Pass 1  IDiag  1:
 E= -76.0285592624131     Delta-E=       -0.000000000576 Rises=F Damp=F
 DIIS: error= 5.70D-07 at cycle   8 NSaved=   8.
 NSaved= 8 IEnMin= 8 EnMin= -76.0285592624131     IErMin= 8 ErrMin= 5.70D-07
 ErrMax= 5.70D-07  0.00D+00 EMaxC= 1.00D-01 BMatC= 6.72D-12 BMatP= 2.47D-10
 IDIUse=1 WtCom= 1.00D+00 WtEn= 0.00D+00
 Coeff-Com: -0.191D-04 0.112D-03 0.899D-03-0.553D-02 0.168D-01-0.786D-02
 Coeff-Com: -0.266D+00 0.126D+01
 Coeff:     -0.191D-04 0.112D-03 0.899D-03-0.553D-02 0.168D-01-0.786D-02
 Coeff:     -0.266D+00 0.126D+01
 Gap=     0.550 Goal=   None    Shift=    0.000
 RMSDP=1.41D-07 MaxDP=1.85D-06 DE=-5.76D-10 OVMax= 2.48D-06

 Cycle   9  Pass 1  IDiag  1:
 E= -76.0285592624308     Delta-E=       -0.000000000018 Rises=F Damp=F
 DIIS: error= 8.43D-08 at cycle   9 NSaved=   9.
 NSaved= 9 IEnMin= 9 EnMin= -76.0285592624308     IErMin= 9 ErrMin= 8.43D-08
 ErrMax= 8.43D-08  0.00D+00 EMaxC= 1.00D-01 BMatC= 1.84D-13 BMatP= 6.72D-12
 IDIUse=1 WtCom= 1.00D+00 WtEn= 0.00D+00
 Coeff-Com:  0.156D-05-0.102D-04-0.963D-04 0.742D-03-0.285D-02 0.531D-02
 Coeff-Com:  0.350D-01-0.278D+00 0.124D+01
 Coeff:      0.156D-05-0.102D-04-0.963D-04 0.742D-03-0.285D-02 0.531D-02
 Coeff:      0.350D-01-0.278D+00 0.124D+01
 Gap=     0.550 Goal=   None    Shift=    0.000
 RMSDP=1.97D-08 MaxDP=2.16D-07 DE=-1.77D-11 OVMax= 2.99D-07

 Cycle  10  Pass 1  IDiag  1:
 E= -76.0285592624310     Delta-E=       -0.000000000000 Rises=F Damp=F
 DIIS: error= 1.79D-08 at cycle  10 NSaved=  10.
 NSaved=10 IEnMin=10 EnMin= -76.0285592624310     IErMin=10 ErrMin= 1.79D-08
 ErrMax= 1.79D-08  0.00D+00 EMaxC= 1.00D-01 BMatC= 7.81D-15 BMatP= 1.84D-13
 IDIUse=1 WtCom= 1.00D+00 WtEn= 0.00D+00
 Coeff-Com:  0.216D-06-0.882D-06-0.173D-05-0.450D-04 0.352D-03-0.148D-02
 Coeff-Com: -0.189D-02 0.412D-01-0.392D+00 0.135D+01
 Coeff:      0.216D-06-0.882D-06-0.173D-05-0.450D-04 0.352D-03-0.148D-02
 Coeff:     -0.189D-02 0.412D-01-0.392D+00 0.135D+01
 Gap=     0.550 Goal=   None    Shift=    0.000
 RMSDP=4.83D-09 MaxDP=5.10D-08 DE=-1.85D-13 OVMax= 9.03D-08

 SCF Done:  E(RHF) =  -76.0285592624     A.U. after   10 cycles
            NFock= 10  Conv=0.48D-08     -V/T= 1.9996
 KE= 7.605670071477D+01 PE=-1.994847454826D+02 EE= 3.791438268281D+01
 Leave Link  502 at Mon Feb 20 10:27:38 2023, MaxMem=   754974720 cpu:               3.9 elap:               1.3
 (Enter /opt/cluster/programs/g16-c.01/g16/l601.exe)
 Copying SCF densities to generalized density rwf, IOpCl= 0 IROHF=0.

 **********************************************************************

            Population analysis using the SCF Density.

 **********************************************************************

 Orbital symmetries:
       Occupied  (A') (A') (A') (A') (A")
       Virtual   (A') (A') (A') (A") (A') (A') (A') (A') (A') (A")
                 (A") (A') (A') (A') (A') (A') (A") (A') (A") (A')
                 (A') (A") (A') (A") (A') (A') (A") (A') (A') (A')
                 (A') (A") (A') (A") (A') (A')
 The electronic state is 1-A'.
 Alpha  occ. eigenvalues --  -20.57987  -1.38548  -0.69134  -0.62673  -0.51621
 Alpha virt. eigenvalues --    0.03393   0.05962   0.17071   0.19780   0.22401
 Alpha virt. eigenvalues --    0.23553   0.29087   0.36295   0.37740   0.39711
 Alpha virt. eigenvalues --    0.41391   0.55945   0.64403   0.65994   0.78936
 Alpha virt. eigenvalues --    0.96977   1.11028   1.12379   1.15039   1.28919
 Alpha virt. eigenvalues --    1.43638   1.46682   1.63407   2.00823   2.06826
 Alpha virt. eigenvalues --    2.12132   2.14822   2.57028   2.65754   2.75941
 Alpha virt. eigenvalues --    3.05562   3.68172   3.69822   3.70403   4.03065
 Alpha virt. eigenvalues --    4.36671
          Condensed to atoms (all electrons):
               1          2          3
     1  O    7.579718   0.322639   0.339450
     2  H    0.322639   0.545616  -0.013516
     3  H    0.339450  -0.013516   0.577520
 Mulliken charges:
               1
     1  O   -0.241807
     2  H    0.145261
     3  H    0.096546
 Sum of Mulliken charges =   0.00000
 Mulliken charges with hydrogens summed into heavy atoms:
               1
     1  O    0.000000
 Electronic spatial extent (au):  <R**2>=             19.1904
 Charge=              0.0000 electrons
 Dipole moment (field-independent basis, Debye):
    X=             -0.0323    Y=             -2.2463    Z=              0.0000  Tot=              2.2465
 Quadrupole moment (field-independent basis, Debye-Ang):
   XX=             -5.0973   YY=             -5.7148   ZZ=             -7.5040
   XY=             -0.0854   XZ=              0.0000   YZ=             -0.0000
 Traceless Quadrupole moment (field-independent basis, Debye-Ang):
   XX=              1.0081   YY=              0.3906   ZZ=             -1.3986
   XY=             -0.0854   XZ=              0.0000   YZ=             -0.0000
 Octapole moment (field-independent basis, Debye-Ang**2):
  XXX=             -0.0843  YYY=             -1.5642  ZZZ=              0.0000  XYY=              0.0717
  XXY=             -1.1829  XXZ=              0.0000  XZZ=             -0.0310  YZZ=             -0.3466
  YYZ=              0.0000  XYZ=             -0.0000
 Hexadecapole moment (field-independent basis, Debye-Ang**3):
 XXXX=             -6.2877 YYYY=             -7.1449 ZZZZ=             -6.6252 XXXY=              0.0430
 XXXZ=             -0.0000 YYYX=             -0.0089 YYYZ=              0.0000 ZZZX=             -0.0000
 ZZZY=              0.0000 XXYY=             -1.8180 XXZZ=             -2.3023 YYZZ=             -2.3842
 XXYZ=             -0.0000 YYXZ=              0.0000 ZZXY=              0.0314
 N-N= 9.485102822543D+00 E-N=-1.994847455445D+02  KE= 7.605670071477D+01
 Symmetry A'   KE= 7.159905000827D+01
 Symmetry A"   KE= 4.457650706494D+00
 No NMR shielding tensors so no spin-rotation constants.
 Leave Link  601 at Mon Feb 20 10:27:38 2023, MaxMem=   754974720 cpu:               1.0 elap:               0.5
 (Enter /opt/cluster/programs/g16-c.01/g16/l9999.exe)
 Unable to Open any file for archive entry.
 1\1\GINC-NODE105\SP\RHF\Aug-CC-pVDZ\H2O1\BOITTIER\20-Feb-2023\0\\#P HF
 /aug-cc-pVDZ scf(maxcycle=200)\\Gaussian input\\0,1\O,0,0.,0.11751,0.\
 H,0,0.7578497316,-0.4701504329,0.\H,0,-0.5114732386,-0.6339393504,0.\\
 Version=ES64L-G16RevC.01\State=1-A'\HF=-76.0285593\RMSD=4.826e-09\Dipo
 le=0.1474238,-0.8714653,0.\Quadrupole=0.7570191,0.2828143,-1.0398335,0
 .0223976,0.,0.\PG=CS [SG(H2O1)]\\@
 The archive entry for this job was punched.


 SCIENCE AND PEACE WILL TRIUMPH OVER IGNORANCE AND WAR

                          -- PASTEUR
 Job cpu time:       0 days  0 hours  0 minutes 10.5 seconds.
 Elapsed time:       0 days  0 hours  0 minutes  4.6 seconds.
 File lengths (MBytes):  RWF=      6 Int=      0 D2E=      0 Chk=      1 Scr=      1
 Normal termination of Gaussian 16 at Mon Feb 20 10:27:38 2023.
