 Entering Gaussian System, Link 0=/opt/cluster/programs/g16-c.01/g16/g16
 Input=/scratch/boittier/jobs/tmp.7262164/gaussian_31_water_ccsdt_adz.com
 Output=/scratch/boittier/jobs/tmp.7262164/gaussian_31_water_ccsdt_adz.out
 Initial command:
 /opt/cluster/programs/g16-c.01/g16/l1.exe "/scratch/boittier/jobs/tmp.7262164/Gau-175065.inp" -scrdir="/scratch/boittier/jobs/tmp.7262164/"
 Entering Link 1 = /opt/cluster/programs/g16-c.01/g16/l1.exe PID=    175066.
  
 Copyright (c) 1988-2019, Gaussian, Inc.  All Rights Reserved.
  
 This is part of the Gaussian(R) 16 program.  It is based on
 the Gaussian(R) 09 system (copyright 2009, Gaussian, Inc.),
 the Gaussian(R) 03 system (copyright 2003, Gaussian, Inc.),
 the Gaussian(R) 98 system (copyright 1998, Gaussian, Inc.),
 the Gaussian(R) 94 system (copyright 1995, Gaussian, Inc.),
 the Gaussian 92(TM) system (copyright 1992, Gaussian, Inc.),
 the Gaussian 90(TM) system (copyright 1990, Gaussian, Inc.),
 the Gaussian 88(TM) system (copyright 1988, Gaussian, Inc.),
 the Gaussian 86(TM) system (copyright 1986, Carnegie Mellon
 University), and the Gaussian 82(TM) system (copyright 1983,
 Carnegie Mellon University). Gaussian is a federally registered
 trademark of Gaussian, Inc.
  
 This software contains proprietary and confidential information,
 including trade secrets, belonging to Gaussian, Inc.
  
 This software is provided under written license and may be
 used, copied, transmitted, or stored only in accord with that
 written license.
  
 The following legend is applicable only to US Government
 contracts under FAR:
  
                    RESTRICTED RIGHTS LEGEND
  
 Use, reproduction and disclosure by the US Government is
 subject to restrictions as set forth in subparagraphs (a)
 and (c) of the Commercial Computer Software - Restricted
 Rights clause in FAR 52.227-19.
  
 Gaussian, Inc.
 340 Quinnipiac St., Bldg. 40, Wallingford CT 06492
  
  
 ---------------------------------------------------------------
 Warning -- This program may not be used in any manner that
 competes with the business of Gaussian, Inc. or will provide
 assistance to any competitor of Gaussian, Inc.  The licensee
 of this program is prohibited from giving any competitor of
 Gaussian, Inc. access to this program.  By using this program,
 the user acknowledges that Gaussian, Inc. is engaged in the
 business of creating and licensing software in the field of
 computational chemistry and represents and warrants to the
 licensee that it is not a competitor of Gaussian, Inc. and that
 it will not use this program in any manner prohibited above.
 ---------------------------------------------------------------
  

 Cite this work as:
 Gaussian 16, Revision C.01,
 M. J. Frisch, G. W. Trucks, H. B. Schlegel, G. E. Scuseria, 
 M. A. Robb, J. R. Cheeseman, G. Scalmani, V. Barone, 
 G. A. Petersson, H. Nakatsuji, X. Li, M. Caricato, A. V. Marenich, 
 J. Bloino, B. G. Janesko, R. Gomperts, B. Mennucci, H. P. Hratchian, 
 J. V. Ortiz, A. F. Izmaylov, J. L. Sonnenberg, D. Williams-Young, 
 F. Ding, F. Lipparini, F. Egidi, J. Goings, B. Peng, A. Petrone, 
 T. Henderson, D. Ranasinghe, V. G. Zakrzewski, J. Gao, N. Rega, 
 G. Zheng, W. Liang, M. Hada, M. Ehara, K. Toyota, R. Fukuda, 
 J. Hasegawa, M. Ishida, T. Nakajima, Y. Honda, O. Kitao, H. Nakai, 
 T. Vreven, K. Throssell, J. A. Montgomery, Jr., J. E. Peralta, 
 F. Ogliaro, M. J. Bearpark, J. J. Heyd, E. N. Brothers, K. N. Kudin, 
 V. N. Staroverov, T. A. Keith, R. Kobayashi, J. Normand, 
 K. Raghavachari, A. P. Rendell, J. C. Burant, S. S. Iyengar, 
 J. Tomasi, M. Cossi, J. M. Millam, M. Klene, C. Adamo, R. Cammi, 
 J. W. Ochterski, R. L. Martin, K. Morokuma, O. Farkas, 
 J. B. Foresman, and D. J. Fox, Gaussian, Inc., Wallingford CT, 2019.
 
 ******************************************
 Gaussian 16:  ES64L-G16RevC.01  3-Jul-2019
                 8-Feb-2023 
 ******************************************
 %nproc=4
 Will use up to    4 processors via shared memory.
 %mem=5760MB
 %chk=gaussian_31_water_ccsdt_adz.chk
 ----------------------------------------
 #P CCSD(T)/aug-cc-pVDZ scf(maxcycle=200)
 ----------------------------------------
 1/38=1,172=1/1;
 2/12=2,17=6,18=5,40=1/2;
 3/5=16,7=10,11=9,25=1,30=1/1,2,3;
 4//1;
 5/5=2,7=200,38=5/2;
 8/6=4,9=120000,10=1/1,4;
 9/5=7,14=2/13;
 6/7=2,8=2,9=2,10=2/1;
 99/5=1,9=1/99;
 Leave Link    1 at Wed Feb  8 14:47:30 2023, MaxMem=   754974720 cpu:               0.2 elap:               0.1
 (Enter /opt/cluster/programs/g16-c.01/g16/l101.exe)
 --------------
 Gaussian input
 --------------
 Symbolic Z-matrix:
 Charge =  0 Multiplicity = 1
 O                     0.        0.11751   0. 
 H                     0.71834  -0.43951   0. 
 H                    -0.77821  -0.44291   0. 
 
 ITRead=  0  0  0
 MicOpt= -1 -1 -1
 NAtoms=      3 NQM=        3 NQMF=       0 NMMI=      0 NMMIF=      0
                NMic=       0 NMicF=      0.
                    Isotopes and Nuclear Properties:
 (Nuclear quadrupole moments (NQMom) in fm**2, nuclear magnetic moments (NMagM)
  in nuclear magnetons)

  Atom         1           2           3
 IAtWgt=          16           1           1
 AtmWgt=  15.9949146   1.0078250   1.0078250
 NucSpn=           0           1           1
 AtZEff=  -0.0000000  -0.0000000  -0.0000000
 NQMom=    0.0000000   0.0000000   0.0000000
 NMagM=    0.0000000   2.7928460   2.7928460
 AtZNuc=   8.0000000   1.0000000   1.0000000
 Leave Link  101 at Wed Feb  8 14:47:30 2023, MaxMem=   754974720 cpu:               0.9 elap:               0.3
 (Enter /opt/cluster/programs/g16-c.01/g16/l202.exe)
                          Input orientation:                          
 ---------------------------------------------------------------------
 Center     Atomic      Atomic             Coordinates (Angstroms)
 Number     Number       Type             X           Y           Z
 ---------------------------------------------------------------------
      1          8           0        0.000000    0.117510    0.000000
      2          1           0        0.718337   -0.439511    0.000000
      3          1           0       -0.778213   -0.442906    0.000000
 ---------------------------------------------------------------------
                    Distance matrix (angstroms):
                    1          2          3
     1  O    0.000000
     2  H    0.909000   0.000000
     3  H    0.959000   1.496554   0.000000
 Stoichiometry    H2O
 Framework group  CS[SG(H2O)]
 Deg. of freedom     3
 Full point group                 CS      NOp   2
 Largest Abelian subgroup         CS      NOp   2
 Largest concise Abelian subgroup C1      NOp   1
                         Standard orientation:                         
 ---------------------------------------------------------------------
 Center     Atomic      Atomic             Coordinates (Angstroms)
 Number     Number       Type             X           Y           Z
 ---------------------------------------------------------------------
      1          8           0        0.000000    0.111904    0.000000
      2          1           0        0.747112   -0.405884    0.000000
      3          1           0       -0.747112   -0.489348    0.000000
 ---------------------------------------------------------------------
 Rotational constants (GHZ):         907.3843236         446.4318477         299.2173301
 Leave Link  202 at Wed Feb  8 14:47:30 2023, MaxMem=   754974720 cpu:               0.2 elap:               0.1
 (Enter /opt/cluster/programs/g16-c.01/g16/l301.exe)
 Standard basis: Aug-CC-pVDZ (5D, 7F)
 Ernie: Thresh=  0.10000D-02 Tol=  0.10000D-05 Strict=F.
 Ernie:  2 primitive shells out of 39 were deleted.
 There are    32 symmetry adapted cartesian basis functions of A'  symmetry.
 There are    11 symmetry adapted cartesian basis functions of A"  symmetry.
 There are    30 symmetry adapted basis functions of A'  symmetry.
 There are    11 symmetry adapted basis functions of A"  symmetry.
    41 basis functions,    65 primitive gaussians,    43 cartesian basis functions
     5 alpha electrons        5 beta electrons
       nuclear repulsion energy         9.4252308210 Hartrees.
 IExCor=    0 DFT=F Ex=HF Corr=None ExCW=0 ScaHFX=  1.000000
 ScaDFX=  1.000000  1.000000  1.000000  1.000000 ScalE2=  1.000000  1.000000
 IRadAn=      5 IRanWt=     -1 IRanGd=            0 ICorTp=0 IEmpDi=  4
 NAtoms=    3 NActive=    3 NUniq=    3 SFac= 1.00D+00 NAtFMM=   60 NAOKFM=F Big=F
 Integral buffers will be    131072 words long.
 Raffenetti 1 integral format.
 Two-electron integral symmetry is turned on.
 Leave Link  301 at Wed Feb  8 14:47:30 2023, MaxMem=   754974720 cpu:               0.1 elap:               0.0
 (Enter /opt/cluster/programs/g16-c.01/g16/l302.exe)
 NPDir=0 NMtPBC=     1 NCelOv=     1 NCel=       1 NClECP=     1 NCelD=      1
         NCelK=      1 NCelE2=     1 NClLst=     1 CellRange=     0.0.
 One-electron integrals computed using PRISM.
 One-electron integral symmetry used in STVInt
 NBasis=    41 RedAO= T EigKep=  2.46D-03  NBF=    30    11
 NBsUse=    41 1.00D-06 EigRej= -1.00D+00 NBFU=    30    11
 Leave Link  302 at Wed Feb  8 14:47:30 2023, MaxMem=   754974720 cpu:               0.4 elap:               0.1
 (Enter /opt/cluster/programs/g16-c.01/g16/l303.exe)
 DipDrv:  MaxL=1.
 Leave Link  303 at Wed Feb  8 14:47:31 2023, MaxMem=   754974720 cpu:               0.4 elap:               0.2
 (Enter /opt/cluster/programs/g16-c.01/g16/l401.exe)
 ExpMin= 2.97D-02 ExpMax= 1.17D+04 ExpMxC= 4.01D+02 IAcc=3 IRadAn=         5 AccDes= 0.00D+00
 Harris functional with IExCor=  205 and IRadAn=       5 diagonalized for initial guess.
 HarFok:  IExCor=  205 AccDes= 0.00D+00 IRadAn=         5 IDoV= 1 UseB2=F ITyADJ=14
 ICtDFT=  3500011 ScaDFX=  1.000000  1.000000  1.000000  1.000000
 FoFCou: FMM=F IPFlag=           0 FMFlag=      100000 FMFlg1=           0
         NFxFlg=           0 DoJE=T BraDBF=F KetDBF=T FulRan=T
         wScrn=  0.000000 ICntrl=       500 IOpCl=  0 I1Cent=   200000004 NGrid=           0
         NMat0=    1 NMatS0=      1 NMatT0=    0 NMatD0=    1 NMtDS0=    0 NMtDT0=    0
 Petite list used in FoFCou.
 Harris En= -76.1244232577755    
 JPrj=0 DoOrth=F DoCkMO=F.
 Initial guess orbital symmetries:
       Occupied  (A') (A') (A') (A') (A")
       Virtual   (A') (A') (A') (A") (A') (A') (A') (A') (A") (A')
                 (A") (A') (A') (A') (A') (A') (A") (A') (A") (A')
                 (A") (A') (A') (A') (A") (A") (A') (A') (A') (A')
                 (A') (A") (A') (A") (A') (A')
 The electronic state of the initial guess is 1-A'.
 Leave Link  401 at Wed Feb  8 14:47:31 2023, MaxMem=   754974720 cpu:               1.5 elap:               0.8
 (Enter /opt/cluster/programs/g16-c.01/g16/l502.exe)
 Keep R1 ints in memory in symmetry-blocked form, NReq=1210696.
 FoFCou: FMM=F IPFlag=           0 FMFlag=           0 FMFlg1=           0
         NFxFlg=           0 DoJE=F BraDBF=F KetDBF=F FulRan=T
         wScrn=  0.000000 ICntrl=       600 IOpCl=  0 I1Cent=           0 NGrid=           0
         NMat0=    1 NMatS0=    861 NMatT0=    0 NMatD0=    1 NMtDS0=    0 NMtDT0=    0
 Petite list used in FoFCou.
 Closed shell SCF:
 Using DIIS extrapolation, IDIIS=  1040.
 NGot=   754974720 LenX=   754771907 LenY=   754769617
 Requested convergence on RMS density matrix=1.00D-08 within 200 cycles.
 Requested convergence on MAX density matrix=1.00D-06.
 Requested convergence on             energy=1.00D-06.
 No special actions if energy rises.

 Cycle   1  Pass 1  IDiag  1:
 E= -75.9607489867866    
 DIIS: error= 5.22D-02 at cycle   1 NSaved=   1.
 NSaved= 1 IEnMin= 1 EnMin= -75.9607489867866     IErMin= 1 ErrMin= 5.22D-02
 ErrMax= 5.22D-02  0.00D+00 EMaxC= 1.00D-01 BMatC= 1.22D-01 BMatP= 1.22D-01
 IDIUse=3 WtCom= 4.78D-01 WtEn= 5.22D-01
 Coeff-Com:  0.100D+01
 Coeff-En:   0.100D+01
 Coeff:      0.100D+01
 Gap=     0.457 Goal=   None    Shift=    0.000
 GapD=    0.457 DampG=2.000 DampE=0.500 DampFc=1.0000 IDamp=-1.
 RMSDP=6.42D-03 MaxDP=1.21D-01              OVMax= 1.19D-01

 Cycle   2  Pass 1  IDiag  1:
 E= -76.0084418457257     Delta-E=       -0.047692858939 Rises=F Damp=F
 DIIS: error= 3.93D-02 at cycle   2 NSaved=   2.
 NSaved= 2 IEnMin= 2 EnMin= -76.0084418457257     IErMin= 2 ErrMin= 3.93D-02
 ErrMax= 3.93D-02  0.00D+00 EMaxC= 1.00D-01 BMatC= 4.53D-02 BMatP= 1.22D-01
 IDIUse=3 WtCom= 6.07D-01 WtEn= 3.93D-01
 Coeff-Com:  0.368D+00 0.632D+00
 Coeff-En:   0.191D+00 0.809D+00
 Coeff:      0.298D+00 0.702D+00
 Gap=     0.565 Goal=   None    Shift=    0.000
 RMSDP=2.94D-03 MaxDP=5.46D-02 DE=-4.77D-02 OVMax= 5.86D-02

 Cycle   3  Pass 1  IDiag  1:
 E= -76.0392146439482     Delta-E=       -0.030772798222 Rises=F Damp=F
 DIIS: error= 4.92D-03 at cycle   3 NSaved=   3.
 NSaved= 3 IEnMin= 3 EnMin= -76.0392146439482     IErMin= 3 ErrMin= 4.92D-03
 ErrMax= 4.92D-03  0.00D+00 EMaxC= 1.00D-01 BMatC= 1.21D-03 BMatP= 4.53D-02
 IDIUse=3 WtCom= 9.51D-01 WtEn= 4.92D-02
 Coeff-Com: -0.370D-01 0.960D-01 0.941D+00
 Coeff-En:   0.000D+00 0.000D+00 0.100D+01
 Coeff:     -0.351D-01 0.913D-01 0.944D+00
 Gap=     0.546 Goal=   None    Shift=    0.000
 RMSDP=4.78D-04 MaxDP=8.10D-03 DE=-3.08D-02 OVMax= 9.01D-03

 Cycle   4  Pass 1  IDiag  1:
 E= -76.0401046846200     Delta-E=       -0.000890040672 Rises=F Damp=F
 DIIS: error= 5.59D-04 at cycle   4 NSaved=   4.
 NSaved= 4 IEnMin= 4 EnMin= -76.0401046846200     IErMin= 4 ErrMin= 5.59D-04
 ErrMax= 5.59D-04  0.00D+00 EMaxC= 1.00D-01 BMatC= 6.33D-06 BMatP= 1.21D-03
 IDIUse=3 WtCom= 9.94D-01 WtEn= 5.59D-03
 Coeff-Com:  0.911D-02-0.440D-01-0.330D+00 0.136D+01
 Coeff-En:   0.000D+00 0.000D+00 0.000D+00 0.100D+01
 Coeff:      0.906D-02-0.438D-01-0.328D+00 0.136D+01
 Gap=     0.547 Goal=   None    Shift=    0.000
 RMSDP=1.05D-04 MaxDP=9.59D-04 DE=-8.90D-04 OVMax= 2.09D-03

 Cycle   5  Pass 1  IDiag  1:
 E= -76.0401197893070     Delta-E=       -0.000015104687 Rises=F Damp=F
 DIIS: error= 1.45D-04 at cycle   5 NSaved=   5.
 NSaved= 5 IEnMin= 5 EnMin= -76.0401197893070     IErMin= 5 ErrMin= 1.45D-04
 ErrMax= 1.45D-04  0.00D+00 EMaxC= 1.00D-01 BMatC= 2.41D-07 BMatP= 6.33D-06
 IDIUse=3 WtCom= 9.99D-01 WtEn= 1.45D-03
 Coeff-Com: -0.692D-03 0.580D-02 0.417D-01-0.329D+00 0.128D+01
 Coeff-En:   0.000D+00 0.000D+00 0.000D+00 0.000D+00 0.100D+01
 Coeff:     -0.691D-03 0.580D-02 0.416D-01-0.329D+00 0.128D+01
 Gap=     0.547 Goal=   None    Shift=    0.000
 RMSDP=2.32D-05 MaxDP=3.23D-04 DE=-1.51D-05 OVMax= 4.97D-04

 Cycle   6  Pass 1  IDiag  1:
 E= -76.0401205003586     Delta-E=       -0.000000711052 Rises=F Damp=F
 DIIS: error= 2.50D-05 at cycle   6 NSaved=   6.
 NSaved= 6 IEnMin= 6 EnMin= -76.0401205003586     IErMin= 6 ErrMin= 2.50D-05
 ErrMax= 2.50D-05  0.00D+00 EMaxC= 1.00D-01 BMatC= 8.15D-09 BMatP= 2.41D-07
 IDIUse=1 WtCom= 1.00D+00 WtEn= 0.00D+00
 Coeff-Com: -0.267D-03 0.102D-02 0.751D-02-0.108D-01-0.201D+00 0.120D+01
 Coeff:     -0.267D-03 0.102D-02 0.751D-02-0.108D-01-0.201D+00 0.120D+01
 Gap=     0.547 Goal=   None    Shift=    0.000
 RMSDP=3.58D-06 MaxDP=6.89D-05 DE=-7.11D-07 OVMax= 9.38D-05

 Cycle   7  Pass 1  IDiag  1:
 E= -76.0401205248499     Delta-E=       -0.000000024491 Rises=F Damp=F
 DIIS: error= 5.60D-06 at cycle   7 NSaved=   7.
 NSaved= 7 IEnMin= 7 EnMin= -76.0401205248499     IErMin= 7 ErrMin= 5.60D-06
 ErrMax= 5.60D-06  0.00D+00 EMaxC= 1.00D-01 BMatC= 4.62D-10 BMatP= 8.15D-09
 IDIUse=1 WtCom= 1.00D+00 WtEn= 0.00D+00
 Coeff-Com:  0.122D-03-0.649D-03-0.492D-02 0.237D-01-0.138D-01-0.331D+00
 Coeff-Com:  0.133D+01
 Coeff:      0.122D-03-0.649D-03-0.492D-02 0.237D-01-0.138D-01-0.331D+00
 Coeff:      0.133D+01
 Gap=     0.547 Goal=   None    Shift=    0.000
 RMSDP=7.85D-07 MaxDP=1.49D-05 DE=-2.45D-08 OVMax= 2.21D-05

 Cycle   8  Pass 1  IDiag  1:
 E= -76.0401205260269     Delta-E=       -0.000000001177 Rises=F Damp=F
 DIIS: error= 6.67D-07 at cycle   8 NSaved=   8.
 NSaved= 8 IEnMin= 8 EnMin= -76.0401205260269     IErMin= 8 ErrMin= 6.67D-07
 ErrMax= 6.67D-07  0.00D+00 EMaxC= 1.00D-01 BMatC= 1.21D-11 BMatP= 4.62D-10
 IDIUse=1 WtCom= 1.00D+00 WtEn= 0.00D+00
 Coeff-Com: -0.187D-04 0.113D-03 0.902D-03-0.546D-02 0.105D-01 0.430D-01
 Coeff-Com: -0.347D+00 0.130D+01
 Coeff:     -0.187D-04 0.113D-03 0.902D-03-0.546D-02 0.105D-01 0.430D-01
 Coeff:     -0.347D+00 0.130D+01
 Gap=     0.547 Goal=   None    Shift=    0.000
 RMSDP=1.70D-07 MaxDP=2.28D-06 DE=-1.18D-09 OVMax= 3.30D-06

 Cycle   9  Pass 1  IDiag  1:
 E= -76.0401205260573     Delta-E=       -0.000000000030 Rises=F Damp=F
 DIIS: error= 8.40D-08 at cycle   9 NSaved=   9.
 NSaved= 9 IEnMin= 9 EnMin= -76.0401205260573     IErMin= 9 ErrMin= 8.40D-08
 ErrMax= 8.40D-08  0.00D+00 EMaxC= 1.00D-01 BMatC= 2.09D-13 BMatP= 1.21D-11
 IDIUse=1 WtCom= 1.00D+00 WtEn= 0.00D+00
 Coeff-Com: -0.200D-05 0.971D-05 0.653D-04-0.181D-03-0.609D-03 0.528D-02
 Coeff-Com: -0.232D-02-0.118D+00 0.112D+01
 Coeff:     -0.200D-05 0.971D-05 0.653D-04-0.181D-03-0.609D-03 0.528D-02
 Coeff:     -0.232D-02-0.118D+00 0.112D+01
 Gap=     0.547 Goal=   None    Shift=    0.000
 RMSDP=2.31D-08 MaxDP=2.50D-07 DE=-3.03D-11 OVMax= 3.42D-07

 Cycle  10  Pass 1  IDiag  1:
 E= -76.0401205260576     Delta-E=       -0.000000000000 Rises=F Damp=F
 DIIS: error= 2.35D-08 at cycle  10 NSaved=  10.
 NSaved=10 IEnMin=10 EnMin= -76.0401205260576     IErMin=10 ErrMin= 2.35D-08
 ErrMax= 2.35D-08  0.00D+00 EMaxC= 1.00D-01 BMatC= 1.23D-14 BMatP= 2.09D-13
 IDIUse=1 WtCom= 1.00D+00 WtEn= 0.00D+00
 Coeff-Com:  0.995D-06-0.560D-05-0.419D-04 0.213D-03-0.184D-03-0.261D-02
 Coeff-Com:  0.129D-01-0.242D-01-0.256D+00 0.127D+01
 Coeff:      0.995D-06-0.560D-05-0.419D-04 0.213D-03-0.184D-03-0.261D-02
 Coeff:      0.129D-01-0.242D-01-0.256D+00 0.127D+01
 Gap=     0.547 Goal=   None    Shift=    0.000
 RMSDP=5.87D-09 MaxDP=6.08D-08 DE=-3.69D-13 OVMax= 9.39D-08

 SCF Done:  E(RHF) =  -76.0401205261     A.U. after   10 cycles
            NFock= 10  Conv=0.59D-08     -V/T= 2.0002
 KE= 7.602634854120D+01 PE=-1.994093473810D+02 EE= 3.791764749277D+01
 Leave Link  502 at Wed Feb  8 14:47:34 2023, MaxMem=   754974720 cpu:               5.0 elap:               2.5
 (Enter /opt/cluster/programs/g16-c.01/g16/l801.exe)
 Windowed orbitals will be sorted by symmetry type.
 ExpMin= 2.97D-02 ExpMax= 1.17D+04 ExpMxC= 4.01D+02 IAcc=3 IRadAn=         5 AccDes= 0.00D+00
 HarFok:  IExCor=  205 AccDes= 0.00D+00 IRadAn=         5 IDoV=-2 UseB2=F ITyADJ=14
 ICtDFT= 12500011 ScaDFX=  1.000000  1.000000  1.000000  1.000000
 Largest valence mixing into a core orbital is  6.03D-05
 Largest core mixing into a valence orbital is  1.70D-05
 Range of M.O.s used for correlation:     2    41
 NBasis=    41 NAE=     5 NBE=     5 NFC=     1 NFV=     0
 NROrb=     40 NOA=     4 NOB=     4 NVA=    36 NVB=    36
 Leave Link  801 at Wed Feb  8 14:47:34 2023, MaxMem=   754974720 cpu:               0.4 elap:               0.2
 (Enter /opt/cluster/programs/g16-c.01/g16/l804.exe)
 Closed-shell transformation, MDV=   754974720 ITran=4 ISComp=2.
 Unit  1 TFree=         57024 TCopy=        242858.
 Semi-Direct transformation.
 ModeAB=           2 MOrb=             4 LenV=     754769647
 LASXX=        60334 LTotXX=       60334 LenRXX=       60334
 LTotAB=       65632 MaxLAS=      151360 LenRXY=      151360
 NonZer=      159520 LenScr=      785920 LnRSAI=           0
 LnScr1=           0 LExtra=           0 Total=       997614
 MaxDsk=          -1 SrtSym=           F ITran=            4
 DoSDTr:  NPSUse=  4
 JobTyp=0 Pass  1:  I=   1 to   4.
 (rs|ai) integrals will be sorted in core.
 Complete sort for first half transformation.
 First half transformation complete.
 Complete sort for second half transformation.
 Second half transformation complete.
 Spin components of T(2) and E(2):
     alpha-alpha T2 =       0.7516081726D-02 E2=     -0.2766192211D-01
     alpha-beta  T2 =       0.4235779431D-01 E2=     -0.1618783905D+00
     beta-beta   T2 =       0.7516081726D-02 E2=     -0.2766192211D-01
 ANorm=    0.1028294684D+01
 E2 =    -0.2172022347D+00 EUMP2 =    -0.76257322760798D+02
 Leave Link  804 at Wed Feb  8 14:47:34 2023, MaxMem=   754974720 cpu:               0.3 elap:               0.1
 (Enter /opt/cluster/programs/g16-c.01/g16/l913.exe)
 CIDS:  MDV=   754974720.
 Frozen-core window:  NFC=   1 NFV=   0.
 IFCWin=0 IBDFC=1 NFBD=     0     0 NFCmp=     0     0 NFFFC=     0     0
 Using DD3R+UMP44R for 1st iteration.
 Using DD4RQ for 2nd and later iterations.
 Keep R2 and R3 ints in memory in symmetry-blocked form, NReq=1234065.
 FoFCou: FMM=F IPFlag=           0 FMFlag=           0 FMFlg1=           0
         NFxFlg=           0 DoJE=F BraDBF=F KetDBF=F FulRan=T
         wScrn=  0.000000 ICntrl=       600 IOpCl=  0 I1Cent=           0 NGrid=           0
         NMat0=    1 NMatS0=    861 NMatT0=    0 NMatD0=    1 NMtDS0=    0 NMtDT0=    0
 Petite list used in FoFCou.
 CIDS: In Core Option IDoMem=           1.
 CCSD(T)
 =======
 Iterations=  50 Convergence= 0.100D-06
 Produce multiple copies of IABC intergrals
 Iteration Nr.   1
 **********************
 DD1Dir will call FoFMem   1 times, MxPair=        20
 NAB=    10 NAA=     0 NBB=     0.
 MP4(R+Q)=  0.24174268D-02
 Maximum subspace dimension=  5
 A-vector RMS=  5.2262203D-03 Max=  1.6361608D-02 conv= 1.00D-05.
 RLE energy=       -0.2198657228
 E3=       -0.51361278D-02        EUMP3=      -0.76262458889D+02
 E4(DQ)=   -0.13428558D-02        UMP4(DQ)=   -0.76263801744D+02
 E4(SDQ)=  -0.29696973D-02        UMP4(SDQ)=  -0.76265428586D+02
 VARIATIONAL ENERGIES WITH THE FIRST-ORDER WAVEFUNCTION:
 DE(Corr)= -0.21983349     E(Corr)=     -76.259954019    
 NORM(A)=   0.10293631D+01
 Iteration Nr.   2
 **********************
 DD1Dir will call FoFMem   1 times, MxPair=        20
 NAB=    10 NAA=     0 NBB=     0.
 A-vector RMS=  6.0853867D-04 Max=  2.8906556D-03 conv= 1.00D-05.
 RLE energy=       -0.2247349380
 DE(Corr)= -0.22415939     E(CORR)=     -76.264279911     Delta=-4.33D-03
 NORM(A)=   0.10313964D+01
 Iteration Nr.   3
 **********************
 DD1Dir will call FoFMem   1 times, MxPair=        20
 NAB=    10 NAA=     0 NBB=     0.
 A-vector RMS=  7.0685872D-04 Max=  2.7233163D-03 conv= 1.00D-05.
 RLE energy=       -0.2250792878
 DE(Corr)= -0.22469254     E(CORR)=     -76.264813071     Delta=-5.33D-04
 NORM(A)=   0.10318653D+01
 Iteration Nr.   4
 **********************
 DD1Dir will call FoFMem   1 times, MxPair=        20
 NAB=    10 NAA=     0 NBB=     0.
 A-vector RMS=  8.7151957D-05 Max=  3.4911754D-04 conv= 1.00D-05.
 RLE energy=       -0.2251128179
 DE(Corr)= -0.22508576     E(CORR)=     -76.265206285     Delta=-3.93D-04
 NORM(A)=   0.10319685D+01
 Iteration Nr.   5
 **********************
 DD1Dir will call FoFMem   1 times, MxPair=        20
 NAB=    10 NAA=     0 NBB=     0.
 A-vector RMS=  3.6002194D-05 Max=  1.5776354D-04 conv= 1.00D-05.
 RLE energy=       -0.2251174773
 DE(Corr)= -0.22511435     E(CORR)=     -76.265234877     Delta=-2.86D-05
 NORM(A)=   0.10319848D+01
 Iteration Nr.   6
 **********************
 DD1Dir will call FoFMem   1 times, MxPair=        20
 NAB=    10 NAA=     0 NBB=     0.
 A-vector RMS=  9.7931168D-06 Max=  4.0202570D-05 conv= 1.00D-05.
 RLE energy=       -0.2251150367
 DE(Corr)= -0.22511615     E(CORR)=     -76.265236672     Delta=-1.80D-06
 NORM(A)=   0.10319866D+01
 Iteration Nr.   7
 **********************
 DD1Dir will call FoFMem   1 times, MxPair=        20
 NAB=    10 NAA=     0 NBB=     0.
 A-vector RMS=  3.4964068D-06 Max=  1.1831446D-05 conv= 1.00D-05.
 RLE energy=       -0.2251155612
 DE(Corr)= -0.22511613     E(CORR)=     -76.265236660     Delta= 1.26D-08
 NORM(A)=   0.10319872D+01
 Iteration Nr.   8
 **********************
 DD1Dir will call FoFMem   1 times, MxPair=        20
 NAB=    10 NAA=     0 NBB=     0.
 A-vector RMS=  1.1384726D-06 Max=  4.8848886D-06 conv= 1.00D-05.
 RLE energy=       -0.2251157770
 DE(Corr)= -0.22511585     E(CORR)=     -76.265236372     Delta= 2.88D-07
 NORM(A)=   0.10319875D+01
 Iteration Nr.   9
 **********************
 DD1Dir will call FoFMem   1 times, MxPair=        20
 NAB=    10 NAA=     0 NBB=     0.
 A-vector RMS=  2.7924612D-07 Max=  9.6636876D-07 conv= 1.00D-05.
 RLE energy=       -0.2251159596
 DE(Corr)= -0.22511597     E(CORR)=     -76.265236495     Delta=-1.23D-07
 NORM(A)=   0.10319877D+01
 Iteration Nr.  10
 **********************
 DD1Dir will call FoFMem   1 times, MxPair=        20
 NAB=    10 NAA=     0 NBB=     0.
 A-vector RMS=  1.3030257D-07 Max=  4.2026504D-07 conv= 1.00D-05.
 RLE energy=       -0.2251159975
 DE(Corr)= -0.22511598     E(CORR)=     -76.265236507     Delta=-1.22D-08
 NORM(A)=   0.10319877D+01
 CI/CC converged in   10 iterations to DelEn=-1.22D-08 Conv= 1.00D-07 ErrA1= 1.30D-07 Conv= 1.00D-05
 Wavefunction amplitudes converged. E(Corr)=     -76.265236507    
 Largest amplitude= 3.42D-02
 IPart=  2 IA=    3   10.95% done.
 IPart=  2 IA=    5   21.27% done.
 IPart=  3 IA=    7   30.95% done.
 IPart=  3 IA=    9   40.00% done.
 IPart=  1 IA=   12   52.38% done.
 IPart=  2 IA=   15   63.33% done.
 IPart=  1 IA=   18   72.86% done.
 IPart=  4 IA=   21   80.95% done.
 IPart=  4 IA=   26   91.27% done.
 Time for triples=        0.37 seconds.
 T4(CCSD)= -0.54132331D-02
 T5(CCSD)=  0.38163936D-03
 CCSD(T)= -0.76270268101D+02
 Discarding MO integrals.
 Leave Link  913 at Wed Feb  8 14:47:53 2023, MaxMem=   754974720 cpu:              36.7 elap:              18.4
 (Enter /opt/cluster/programs/g16-c.01/g16/l601.exe)
 Copying SCF densities to generalized density rwf, IOpCl= 0 IROHF=0.

 **********************************************************************

            Population analysis using the SCF Density.

 **********************************************************************

 Orbital symmetries:
       Occupied  (A') (A') (A') (A') (A")
       Virtual   (A') (A') (A') (A") (A') (A') (A') (A') (A") (A')
                 (A") (A') (A') (A') (A') (A') (A") (A') (A") (A')
                 (A') (A") (A') (A') (A") (A") (A') (A') (A') (A')
                 (A') (A") (A') (A") (A') (A')
 The electronic state is 1-A'.
 Alpha  occ. eigenvalues --  -20.57227  -1.36823  -0.73635  -0.58604  -0.51097
 Alpha virt. eigenvalues --    0.03594   0.05787   0.17353   0.19522   0.22365
 Alpha virt. eigenvalues --    0.23013   0.29776   0.33254   0.38625   0.41155
 Alpha virt. eigenvalues --    0.44060   0.54081   0.65120   0.66113   0.82913
 Alpha virt. eigenvalues --    0.93335   1.09610   1.11068   1.15094   1.32752
 Alpha virt. eigenvalues --    1.47440   1.49280   1.59407   2.01731   2.02854
 Alpha virt. eigenvalues --    2.12260   2.40140   2.50684   2.66946   2.75263
 Alpha virt. eigenvalues --    2.96082   3.67196   3.69426   3.71086   4.06682
 Alpha virt. eigenvalues --    4.36391
          Condensed to atoms (all electrons):
               1          2          3
     1  O    7.553204   0.354477   0.340748
     2  H    0.354477   0.596701  -0.046732
     3  H    0.340748  -0.046732   0.553109
 Mulliken charges:
               1
     1  O   -0.248429
     2  H    0.095554
     3  H    0.152875
 Sum of Mulliken charges =  -0.00000
 Mulliken charges with hydrogens summed into heavy atoms:
               1
     1  O   -0.000000
 Electronic spatial extent (au):  <R**2>=             19.2383
 Charge=             -0.0000 electrons
 Dipole moment (field-independent basis, Debye):
    X=              0.0225    Y=             -1.9491    Z=              0.0000  Tot=              1.9492
 Quadrupole moment (field-independent basis, Debye-Ang):
   XX=             -4.2573   YY=             -6.2983   ZZ=             -7.5359
   XY=              0.1441   XZ=              0.0000   YZ=              0.0000
 Traceless Quadrupole moment (field-independent basis, Debye-Ang):
   XX=              1.7732   YY=             -0.2678   ZZ=             -1.5054
   XY=              0.1441   XZ=              0.0000   YZ=              0.0000
 Octapole moment (field-independent basis, Debye-Ang**2):
  XXX=              0.0671  YYY=             -1.1924  ZZZ=              0.0000  XYY=             -0.0913
  XXY=             -1.3197  XXZ=              0.0000  XZZ=              0.0310  YZZ=             -0.3061
  YYZ=              0.0000  XYZ=              0.0000
 Hexadecapole moment (field-independent basis, Debye-Ang**3):
 XXXX=             -5.7977 YYYY=             -7.1470 ZZZZ=             -6.7491 XXXY=              0.0097
 XXXZ=              0.0000 YYYX=              0.0011 YYYZ=              0.0000 ZZZX=              0.0000
 ZZZY=              0.0000 XXYY=             -1.8887 XXZZ=             -2.3959 YYZZ=             -2.3608
 XXYZ=              0.0000 YYXZ=              0.0000 ZZXY=             -0.0329
 N-N= 9.425230821018D+00 E-N=-1.994093472086D+02  KE= 7.602634854120D+01
 Symmetry A'   KE= 7.158475967327D+01
 Symmetry A"   KE= 4.441588867928D+00
 Leave Link  601 at Wed Feb  8 14:47:53 2023, MaxMem=   754974720 cpu:               0.7 elap:               0.3
 (Enter /opt/cluster/programs/g16-c.01/g16/l9999.exe)
 Unable to Open any file for archive entry.
 1\1\GINC-NODE62\SP\RCCSD(T)-FC\Aug-CC-pVDZ\H2O1\BOITTIER\08-Feb-2023\0
 \\#P CCSD(T)/aug-cc-pVDZ scf(maxcycle=200)\\Gaussian input\\0,1\O,0,0.
 ,0.11751,0.\H,0,0.7183372325,-0.4395112028,0.\H,0,-0.7782126143,-0.442
 9060302,0.\\Version=ES64L-G16RevC.01\State=1-A'\HF=-76.0401205\MP2=-76
 .2573228\MP3=-76.2624589\MP4D=-76.2662192\MP4DQ=-76.2638017\MP4SDQ=-76
 .2654286\CCSD=-76.2652365\CCSD(T)=-76.2702681\RMSD=5.868e-09\PG=CS [SG
 (H2O1)]\\@
 The archive entry for this job was punched.


 Just remember, when you're over the hill, you begin to pick up speed.
 -- Charles Schulz
 Job cpu time:       0 days  0 hours  0 minutes 47.3 seconds.
 Elapsed time:       0 days  0 hours  0 minutes 23.3 seconds.
 File lengths (MBytes):  RWF=     15 Int=      0 D2E=      0 Chk=      1 Scr=      1
 Normal termination of Gaussian 16 at Wed Feb  8 14:47:53 2023.
