 Entering Gaussian System, Link 0=/opt/cluster/programs/g16-c.01/g16/g16
 Input=/scratch/boittier/jobs/tmp.7312149/gaussian_140_water_hf_adz.com
 Output=/scratch/boittier/jobs/tmp.7312149/gaussian_140_water_hf_adz.out
 Initial command:
 /opt/cluster/programs/g16-c.01/g16/l1.exe "/scratch/boittier/jobs/tmp.7312149/Gau-186506.inp" -scrdir="/scratch/boittier/jobs/tmp.7312149/"
 Entering Link 1 = /opt/cluster/programs/g16-c.01/g16/l1.exe PID=    186507.
  
 Copyright (c) 1988-2019, Gaussian, Inc.  All Rights Reserved.
  
 This is part of the Gaussian(R) 16 program.  It is based on
 the Gaussian(R) 09 system (copyright 2009, Gaussian, Inc.),
 the Gaussian(R) 03 system (copyright 2003, Gaussian, Inc.),
 the Gaussian(R) 98 system (copyright 1998, Gaussian, Inc.),
 the Gaussian(R) 94 system (copyright 1995, Gaussian, Inc.),
 the Gaussian 92(TM) system (copyright 1992, Gaussian, Inc.),
 the Gaussian 90(TM) system (copyright 1990, Gaussian, Inc.),
 the Gaussian 88(TM) system (copyright 1988, Gaussian, Inc.),
 the Gaussian 86(TM) system (copyright 1986, Carnegie Mellon
 University), and the Gaussian 82(TM) system (copyright 1983,
 Carnegie Mellon University). Gaussian is a federally registered
 trademark of Gaussian, Inc.
  
 This software contains proprietary and confidential information,
 including trade secrets, belonging to Gaussian, Inc.
  
 This software is provided under written license and may be
 used, copied, transmitted, or stored only in accord with that
 written license.
  
 The following legend is applicable only to US Government
 contracts under FAR:
  
                    RESTRICTED RIGHTS LEGEND
  
 Use, reproduction and disclosure by the US Government is
 subject to restrictions as set forth in subparagraphs (a)
 and (c) of the Commercial Computer Software - Restricted
 Rights clause in FAR 52.227-19.
  
 Gaussian, Inc.
 340 Quinnipiac St., Bldg. 40, Wallingford CT 06492
  
  
 ---------------------------------------------------------------
 Warning -- This program may not be used in any manner that
 competes with the business of Gaussian, Inc. or will provide
 assistance to any competitor of Gaussian, Inc.  The licensee
 of this program is prohibited from giving any competitor of
 Gaussian, Inc. access to this program.  By using this program,
 the user acknowledges that Gaussian, Inc. is engaged in the
 business of creating and licensing software in the field of
 computational chemistry and represents and warrants to the
 licensee that it is not a competitor of Gaussian, Inc. and that
 it will not use this program in any manner prohibited above.
 ---------------------------------------------------------------
  

 Cite this work as:
 Gaussian 16, Revision C.01,
 M. J. Frisch, G. W. Trucks, H. B. Schlegel, G. E. Scuseria, 
 M. A. Robb, J. R. Cheeseman, G. Scalmani, V. Barone, 
 G. A. Petersson, H. Nakatsuji, X. Li, M. Caricato, A. V. Marenich, 
 J. Bloino, B. G. Janesko, R. Gomperts, B. Mennucci, H. P. Hratchian, 
 J. V. Ortiz, A. F. Izmaylov, J. L. Sonnenberg, D. Williams-Young, 
 F. Ding, F. Lipparini, F. Egidi, J. Goings, B. Peng, A. Petrone, 
 T. Henderson, D. Ranasinghe, V. G. Zakrzewski, J. Gao, N. Rega, 
 G. Zheng, W. Liang, M. Hada, M. Ehara, K. Toyota, R. Fukuda, 
 J. Hasegawa, M. Ishida, T. Nakajima, Y. Honda, O. Kitao, H. Nakai, 
 T. Vreven, K. Throssell, J. A. Montgomery, Jr., J. E. Peralta, 
 F. Ogliaro, M. J. Bearpark, J. J. Heyd, E. N. Brothers, K. N. Kudin, 
 V. N. Staroverov, T. A. Keith, R. Kobayashi, J. Normand, 
 K. Raghavachari, A. P. Rendell, J. C. Burant, S. S. Iyengar, 
 J. Tomasi, M. Cossi, J. M. Millam, M. Klene, C. Adamo, R. Cammi, 
 J. W. Ochterski, R. L. Martin, K. Morokuma, O. Farkas, 
 J. B. Foresman, and D. J. Fox, Gaussian, Inc., Wallingford CT, 2019.
 
 ******************************************
 Gaussian 16:  ES64L-G16RevC.01  3-Jul-2019
                20-Feb-2023 
 ******************************************
 %nproc=4
 Will use up to    4 processors via shared memory.
 %mem=5760MB
 %chk=gaussian_140_water_hf_adz.chk
 -----------------------------------
 #P HF/aug-cc-pVDZ scf(maxcycle=200)
 -----------------------------------
 1/38=1,172=1/1;
 2/12=2,17=6,18=5,40=1/2;
 3/5=16,7=10,11=9,25=1,30=1/1,2,3;
 4//1;
 5/5=2,7=200,38=5/2;
 6/7=2,8=2,9=2,10=2,28=1/1;
 99/5=1,9=1/99;
 Leave Link    1 at Mon Feb 20 10:28:56 2023, MaxMem=   754974720 cpu:               0.1 elap:               0.1
 (Enter /opt/cluster/programs/g16-c.01/g16/l101.exe)
 --------------
 Gaussian input
 --------------
 Symbolic Z-matrix:
 Charge =  0 Multiplicity = 1
 O                     0.        0.11751   0. 
 H                     0.79736  -0.50079   0. 
 H                    -0.51161  -0.69362   0. 
 
 ITRead=  0  0  0
 MicOpt= -1 -1 -1
 NAtoms=      3 NQM=        3 NQMF=       0 NMMI=      0 NMMIF=      0
                NMic=       0 NMicF=      0.
                    Isotopes and Nuclear Properties:
 (Nuclear quadrupole moments (NQMom) in fm**2, nuclear magnetic moments (NMagM)
  in nuclear magnetons)

  Atom         1           2           3
 IAtWgt=          16           1           1
 AtmWgt=  15.9949146   1.0078250   1.0078250
 NucSpn=           0           1           1
 AtZEff=  -0.0000000  -0.0000000  -0.0000000
 NQMom=    0.0000000   0.0000000   0.0000000
 NMagM=    0.0000000   2.7928460   2.7928460
 AtZNuc=   8.0000000   1.0000000   1.0000000
 Leave Link  101 at Mon Feb 20 10:28:56 2023, MaxMem=   754974720 cpu:               0.5 elap:               0.2
 (Enter /opt/cluster/programs/g16-c.01/g16/l202.exe)
                          Input orientation:                          
 ---------------------------------------------------------------------
 Center     Atomic      Atomic             Coordinates (Angstroms)
 Number     Number       Type             X           Y           Z
 ---------------------------------------------------------------------
      1          8           0        0.000000    0.117510    0.000000
      2          1           0        0.797362   -0.500790    0.000000
      3          1           0       -0.511611   -0.693622    0.000000
 ---------------------------------------------------------------------
                    Distance matrix (angstroms):
                    1          2          3
     1  O    0.000000
     2  H    1.009000   0.000000
     3  H    0.959000   1.323100   0.000000
 Stoichiometry    H2O
 Framework group  CS[SG(H2O)]
 Deg. of freedom     3
 Full point group                 CS      NOp   2
 Largest Abelian subgroup         CS      NOp   2
 Largest concise Abelian subgroup C1      NOp   1
                         Standard orientation:                         
 ---------------------------------------------------------------------
 Center     Atomic      Atomic             Coordinates (Angstroms)
 Number     Number       Type             X           Y           Z
 ---------------------------------------------------------------------
      1          8           0        0.000000    0.145771    0.000000
      2          1           0        0.660689   -0.616837   -0.000000
      3          1           0       -0.660689   -0.549334   -0.000000
 ---------------------------------------------------------------------
 Rotational constants (GHZ):         588.6624381         518.5671585         275.6980203
 Leave Link  202 at Mon Feb 20 10:28:56 2023, MaxMem=   754974720 cpu:               0.1 elap:               0.0
 (Enter /opt/cluster/programs/g16-c.01/g16/l301.exe)
 Standard basis: Aug-CC-pVDZ (5D, 7F)
 Ernie: Thresh=  0.10000D-02 Tol=  0.10000D-05 Strict=F.
 Ernie:  2 primitive shells out of 39 were deleted.
 There are    32 symmetry adapted cartesian basis functions of A'  symmetry.
 There are    11 symmetry adapted cartesian basis functions of A"  symmetry.
 There are    30 symmetry adapted basis functions of A'  symmetry.
 There are    11 symmetry adapted basis functions of A"  symmetry.
    41 basis functions,    65 primitive gaussians,    43 cartesian basis functions
     5 alpha electrons        5 beta electrons
       nuclear repulsion energy         9.0100176668 Hartrees.
 IExCor=    0 DFT=F Ex=HF Corr=None ExCW=0 ScaHFX=  1.000000
 ScaDFX=  1.000000  1.000000  1.000000  1.000000 ScalE2=  1.000000  1.000000
 IRadAn=      5 IRanWt=     -1 IRanGd=            0 ICorTp=0 IEmpDi=  4
 NAtoms=    3 NActive=    3 NUniq=    3 SFac= 1.00D+00 NAtFMM=   60 NAOKFM=F Big=F
 Integral buffers will be    131072 words long.
 Raffenetti 1 integral format.
 Two-electron integral symmetry is turned on.
 Leave Link  301 at Mon Feb 20 10:28:56 2023, MaxMem=   754974720 cpu:               0.1 elap:               0.1
 (Enter /opt/cluster/programs/g16-c.01/g16/l302.exe)
 NPDir=0 NMtPBC=     1 NCelOv=     1 NCel=       1 NClECP=     1 NCelD=      1
         NCelK=      1 NCelE2=     1 NClLst=     1 CellRange=     0.0.
 One-electron integrals computed using PRISM.
 One-electron integral symmetry used in STVInt
 NBasis=    41 RedAO= T EigKep=  1.84D-03  NBF=    30    11
 NBsUse=    41 1.00D-06 EigRej= -1.00D+00 NBFU=    30    11
 Leave Link  302 at Mon Feb 20 10:28:57 2023, MaxMem=   754974720 cpu:               1.3 elap:               0.6
 (Enter /opt/cluster/programs/g16-c.01/g16/l303.exe)
 DipDrv:  MaxL=1.
 Leave Link  303 at Mon Feb 20 10:28:57 2023, MaxMem=   754974720 cpu:               0.5 elap:               0.3
 (Enter /opt/cluster/programs/g16-c.01/g16/l401.exe)
 ExpMin= 2.97D-02 ExpMax= 1.17D+04 ExpMxC= 4.01D+02 IAcc=3 IRadAn=         5 AccDes= 0.00D+00
 Harris functional with IExCor=  205 and IRadAn=       5 diagonalized for initial guess.
 HarFok:  IExCor=  205 AccDes= 0.00D+00 IRadAn=         5 IDoV= 1 UseB2=F ITyADJ=14
 ICtDFT=  3500011 ScaDFX=  1.000000  1.000000  1.000000  1.000000
 FoFCou: FMM=F IPFlag=           0 FMFlag=      100000 FMFlg1=           0
         NFxFlg=           0 DoJE=T BraDBF=F KetDBF=T FulRan=T
         wScrn=  0.000000 ICntrl=       500 IOpCl=  0 I1Cent=   200000004 NGrid=           0
         NMat0=    1 NMatS0=      1 NMatT0=    0 NMatD0=    1 NMtDS0=    0 NMtDT0=    0
 Petite list used in FoFCou.
 Harris En= -76.1111235591873    
 JPrj=0 DoOrth=F DoCkMO=F.
 Initial guess orbital symmetries:
       Occupied  (A') (A') (A') (A') (A")
       Virtual   (A') (A') (A') (A") (A') (A') (A') (A') (A') (A")
                 (A") (A') (A') (A') (A') (A') (A") (A') (A") (A')
                 (A") (A') (A') (A") (A') (A') (A") (A') (A') (A')
                 (A') (A") (A') (A") (A') (A')
 The electronic state of the initial guess is 1-A'.
 Leave Link  401 at Mon Feb 20 10:28:58 2023, MaxMem=   754974720 cpu:               1.9 elap:               1.0
 (Enter /opt/cluster/programs/g16-c.01/g16/l502.exe)
 Keep R1 ints in memory in symmetry-blocked form, NReq=1210668.
 FoFCou: FMM=F IPFlag=           0 FMFlag=           0 FMFlg1=           0
         NFxFlg=           0 DoJE=F BraDBF=F KetDBF=F FulRan=T
         wScrn=  0.000000 ICntrl=       600 IOpCl=  0 I1Cent=           0 NGrid=           0
         NMat0=    1 NMatS0=    861 NMatT0=    0 NMatD0=    1 NMtDS0=    0 NMtDT0=    0
 Petite list used in FoFCou.
 Closed shell SCF:
 Using DIIS extrapolation, IDIIS=  1040.
 NGot=   754974720 LenX=   754771907 LenY=   754769617
 Requested convergence on RMS density matrix=1.00D-08 within 200 cycles.
 Requested convergence on MAX density matrix=1.00D-06.
 Requested convergence on             energy=1.00D-06.
 No special actions if energy rises.

 Cycle   1  Pass 1  IDiag  1:
 E= -75.9522862942500    
 DIIS: error= 4.84D-02 at cycle   1 NSaved=   1.
 NSaved= 1 IEnMin= 1 EnMin= -75.9522862942500     IErMin= 1 ErrMin= 4.84D-02
 ErrMax= 4.84D-02  0.00D+00 EMaxC= 1.00D-01 BMatC= 1.11D-01 BMatP= 1.11D-01
 IDIUse=3 WtCom= 5.16D-01 WtEn= 4.84D-01
 Coeff-Com:  0.100D+01
 Coeff-En:   0.100D+01
 Coeff:      0.100D+01
 Gap=     0.464 Goal=   None    Shift=    0.000
 GapD=    0.464 DampG=2.000 DampE=0.500 DampFc=1.0000 IDamp=-1.
 RMSDP=6.19D-03 MaxDP=1.12D-01              OVMax= 1.25D-01

 Cycle   2  Pass 1  IDiag  1:
 E= -75.9924619340797     Delta-E=       -0.040175639830 Rises=F Damp=F
 DIIS: error= 4.10D-02 at cycle   2 NSaved=   2.
 NSaved= 2 IEnMin= 2 EnMin= -75.9924619340797     IErMin= 2 ErrMin= 4.10D-02
 ErrMax= 4.10D-02  0.00D+00 EMaxC= 1.00D-01 BMatC= 4.67D-02 BMatP= 1.11D-01
 IDIUse=3 WtCom= 5.90D-01 WtEn= 4.10D-01
 Coeff-Com:  0.383D+00 0.617D+00
 Coeff-En:   0.242D+00 0.758D+00
 Coeff:      0.325D+00 0.675D+00
 Gap=     0.561 Goal=   None    Shift=    0.000
 RMSDP=3.02D-03 MaxDP=5.43D-02 DE=-4.02D-02 OVMax= 5.93D-02

 Cycle   3  Pass 1  IDiag  1:
 E= -76.0250676243722     Delta-E=       -0.032605690293 Rises=F Damp=F
 DIIS: error= 4.13D-03 at cycle   3 NSaved=   3.
 NSaved= 3 IEnMin= 3 EnMin= -76.0250676243722     IErMin= 3 ErrMin= 4.13D-03
 ErrMax= 4.13D-03  0.00D+00 EMaxC= 1.00D-01 BMatC= 1.07D-03 BMatP= 4.67D-02
 IDIUse=3 WtCom= 9.59D-01 WtEn= 4.13D-02
 Coeff-Com: -0.399D-01 0.854D-01 0.955D+00
 Coeff-En:   0.000D+00 0.000D+00 0.100D+01
 Coeff:     -0.383D-01 0.818D-01 0.956D+00
 Gap=     0.544 Goal=   None    Shift=    0.000
 RMSDP=4.58D-04 MaxDP=8.37D-03 DE=-3.26D-02 OVMax= 9.50D-03

 Cycle   4  Pass 1  IDiag  1:
 E= -76.0259116658123     Delta-E=       -0.000844041440 Rises=F Damp=F
 DIIS: error= 7.72D-04 at cycle   4 NSaved=   4.
 NSaved= 4 IEnMin= 4 EnMin= -76.0259116658123     IErMin= 4 ErrMin= 7.72D-04
 ErrMax= 7.72D-04  0.00D+00 EMaxC= 1.00D-01 BMatC= 8.45D-06 BMatP= 1.07D-03
 IDIUse=3 WtCom= 9.92D-01 WtEn= 7.72D-03
 Coeff-Com:  0.102D-01-0.426D-01-0.354D+00 0.139D+01
 Coeff-En:   0.000D+00 0.000D+00 0.000D+00 0.100D+01
 Coeff:      0.101D-01-0.422D-01-0.351D+00 0.138D+01
 Gap=     0.545 Goal=   None    Shift=    0.000
 RMSDP=1.18D-04 MaxDP=1.45D-03 DE=-8.44D-04 OVMax= 2.26D-03

 Cycle   5  Pass 1  IDiag  1:
 E= -76.0259330761003     Delta-E=       -0.000021410288 Rises=F Damp=F
 DIIS: error= 2.05D-04 at cycle   5 NSaved=   5.
 NSaved= 5 IEnMin= 5 EnMin= -76.0259330761003     IErMin= 5 ErrMin= 2.05D-04
 ErrMax= 2.05D-04  0.00D+00 EMaxC= 1.00D-01 BMatC= 3.61D-07 BMatP= 8.45D-06
 IDIUse=3 WtCom= 9.98D-01 WtEn= 2.05D-03
 Coeff-Com: -0.914D-03 0.634D-02 0.515D-01-0.359D+00 0.130D+01
 Coeff-En:   0.000D+00 0.000D+00 0.000D+00 0.000D+00 0.100D+01
 Coeff:     -0.912D-03 0.633D-02 0.514D-01-0.358D+00 0.130D+01
 Gap=     0.546 Goal=   None    Shift=    0.000
 RMSDP=2.65D-05 MaxDP=4.63D-04 DE=-2.14D-05 OVMax= 6.41D-04

 Cycle   6  Pass 1  IDiag  1:
 E= -76.0259341500521     Delta-E=       -0.000001073952 Rises=F Damp=F
 DIIS: error= 3.27D-05 at cycle   6 NSaved=   6.
 NSaved= 6 IEnMin= 6 EnMin= -76.0259341500521     IErMin= 6 ErrMin= 3.27D-05
 ErrMax= 3.27D-05  0.00D+00 EMaxC= 1.00D-01 BMatC= 1.27D-08 BMatP= 3.61D-07
 IDIUse=1 WtCom= 1.00D+00 WtEn= 0.00D+00
 Coeff-Com: -0.335D-03 0.112D-02 0.884D-02-0.135D-01-0.212D+00 0.122D+01
 Coeff:     -0.335D-03 0.112D-02 0.884D-02-0.135D-01-0.212D+00 0.122D+01
 Gap=     0.546 Goal=   None    Shift=    0.000
 RMSDP=4.41D-06 MaxDP=9.41D-05 DE=-1.07D-06 OVMax= 1.27D-04

 Cycle   7  Pass 1  IDiag  1:
 E= -76.0259341868023     Delta-E=       -0.000000036750 Rises=F Damp=F
 DIIS: error= 4.65D-06 at cycle   7 NSaved=   7.
 NSaved= 7 IEnMin= 7 EnMin= -76.0259341868023     IErMin= 7 ErrMin= 4.65D-06
 ErrMax= 4.65D-06  0.00D+00 EMaxC= 1.00D-01 BMatC= 4.84D-10 BMatP= 1.27D-08
 IDIUse=1 WtCom= 1.00D+00 WtEn= 0.00D+00
 Coeff-Com:  0.125D-03-0.577D-03-0.491D-02 0.230D-01-0.187D-01-0.242D+00
 Coeff-Com:  0.124D+01
 Coeff:      0.125D-03-0.577D-03-0.491D-02 0.230D-01-0.187D-01-0.242D+00
 Coeff:      0.124D+01
 Gap=     0.546 Goal=   None    Shift=    0.000
 RMSDP=8.08D-07 MaxDP=1.00D-05 DE=-3.68D-08 OVMax= 1.98D-05

 Cycle   8  Pass 1  IDiag  1:
 E= -76.0259341878589     Delta-E=       -0.000000001057 Rises=F Damp=F
 DIIS: error= 5.96D-07 at cycle   8 NSaved=   8.
 NSaved= 8 IEnMin= 8 EnMin= -76.0259341878589     IErMin= 8 ErrMin= 5.96D-07
 ErrMax= 5.96D-07  0.00D+00 EMaxC= 1.00D-01 BMatC= 9.75D-12 BMatP= 4.84D-10
 IDIUse=1 WtCom= 1.00D+00 WtEn= 0.00D+00
 Coeff-Com: -0.230D-04 0.117D-03 0.104D-02-0.564D-02 0.954D-02 0.367D-01
 Coeff-Com: -0.344D+00 0.130D+01
 Coeff:     -0.230D-04 0.117D-03 0.104D-02-0.564D-02 0.954D-02 0.367D-01
 Coeff:     -0.344D+00 0.130D+01
 Gap=     0.546 Goal=   None    Shift=    0.000
 RMSDP=1.67D-07 MaxDP=2.26D-06 DE=-1.06D-09 OVMax= 3.06D-06

 Cycle   9  Pass 1  IDiag  1:
 E= -76.0259341878849     Delta-E=       -0.000000000026 Rises=F Damp=F
 DIIS: error= 9.73D-08 at cycle   9 NSaved=   9.
 NSaved= 9 IEnMin= 9 EnMin= -76.0259341878849     IErMin= 9 ErrMin= 9.73D-08
 ErrMax= 9.73D-08  0.00D+00 EMaxC= 1.00D-01 BMatC= 3.31D-13 BMatP= 9.75D-12
 IDIUse=1 WtCom= 1.00D+00 WtEn= 0.00D+00
 Coeff-Com:  0.207D-05-0.112D-04-0.119D-03 0.788D-03-0.187D-02-0.280D-02
 Coeff-Com:  0.561D-01-0.326D+00 0.127D+01
 Coeff:      0.207D-05-0.112D-04-0.119D-03 0.788D-03-0.187D-02-0.280D-02
 Coeff:      0.561D-01-0.326D+00 0.127D+01
 Gap=     0.546 Goal=   None    Shift=    0.000
 RMSDP=2.47D-08 MaxDP=2.86D-07 DE=-2.60D-11 OVMax= 4.29D-07

 Cycle  10  Pass 1  IDiag  1:
 E= -76.0259341878856     Delta-E=       -0.000000000001 Rises=F Damp=F
 DIIS: error= 2.45D-08 at cycle  10 NSaved=  10.
 NSaved=10 IEnMin=10 EnMin= -76.0259341878856     IErMin=10 ErrMin= 2.45D-08
 ErrMax= 2.45D-08  0.00D+00 EMaxC= 1.00D-01 BMatC= 1.70D-14 BMatP= 3.31D-13
 IDIUse=1 WtCom= 1.00D+00 WtEn= 0.00D+00
 Coeff-Com:  0.641D-06-0.308D-05-0.209D-04 0.655D-04 0.778D-04-0.123D-02
 Coeff-Com:  0.247D-02 0.185D-01-0.336D+00 0.132D+01
 Coeff:      0.641D-06-0.308D-05-0.209D-04 0.655D-04 0.778D-04-0.123D-02
 Coeff:      0.247D-02 0.185D-01-0.336D+00 0.132D+01
 Gap=     0.546 Goal=   None    Shift=    0.000
 RMSDP=7.04D-09 MaxDP=7.57D-08 DE=-7.25D-13 OVMax= 1.47D-07

 SCF Done:  E(RHF) =  -76.0259341879     A.U. after   10 cycles
            NFock= 10  Conv=0.70D-08     -V/T= 2.0022
 KE= 7.586031505725D+01 PE=-1.984414160206D+02 EE= 3.754514910867D+01
 Leave Link  502 at Mon Feb 20 10:28:59 2023, MaxMem=   754974720 cpu:               3.5 elap:               1.2
 (Enter /opt/cluster/programs/g16-c.01/g16/l601.exe)
 Copying SCF densities to generalized density rwf, IOpCl= 0 IROHF=0.

 **********************************************************************

            Population analysis using the SCF Density.

 **********************************************************************

 Orbital symmetries:
       Occupied  (A') (A') (A') (A') (A")
       Virtual   (A') (A') (A') (A") (A') (A') (A') (A') (A') (A")
                 (A") (A') (A') (A') (A') (A') (A") (A') (A") (A')
                 (A') (A") (A') (A") (A') (A') (A") (A') (A') (A')
                 (A') (A") (A') (A") (A') (A')
 The electronic state is 1-A'.
 Alpha  occ. eigenvalues --  -20.58953  -1.35929  -0.66372  -0.61991  -0.51295
 Alpha virt. eigenvalues --    0.03284   0.05957   0.17129   0.20016   0.22082
 Alpha virt. eigenvalues --    0.23795   0.27505   0.35873   0.36812   0.39457
 Alpha virt. eigenvalues --    0.40436   0.55435   0.63088   0.66025   0.76150
 Alpha virt. eigenvalues --    0.95504   1.11570   1.11920   1.14478   1.28109
 Alpha virt. eigenvalues --    1.41999   1.45034   1.61084   1.97686   2.03212
 Alpha virt. eigenvalues --    2.07579   2.11747   2.47677   2.61107   2.65690
 Alpha virt. eigenvalues --    3.07242   3.67640   3.68132   3.69170   3.98270
 Alpha virt. eigenvalues --    4.24783
          Condensed to atoms (all electrons):
               1          2          3
     1  O    7.723637   0.301040   0.319297
     2  H    0.301040   0.498846   0.004397
     3  H    0.319297   0.004397   0.528051
 Mulliken charges:
               1
     1  O   -0.343973
     2  H    0.195717
     3  H    0.148256
 Sum of Mulliken charges =   0.00000
 Mulliken charges with hydrogens summed into heavy atoms:
               1
     1  O    0.000000
 Electronic spatial extent (au):  <R**2>=             19.8439
 Charge=              0.0000 electrons
 Dipole moment (field-independent basis, Debye):
    X=             -0.0333    Y=             -2.3227    Z=             -0.0000  Tot=              2.3229
 Quadrupole moment (field-independent basis, Debye-Ang):
   XX=             -5.1465   YY=             -5.6393   ZZ=             -7.6181
   XY=             -0.0830   XZ=              0.0000   YZ=              0.0000
 Traceless Quadrupole moment (field-independent basis, Debye-Ang):
   XX=              0.9881   YY=              0.4953   ZZ=             -1.4835
   XY=             -0.0830   XZ=              0.0000   YZ=              0.0000
 Octapole moment (field-independent basis, Debye-Ang**2):
  XXX=             -0.0887  YYY=             -1.6001  ZZZ=             -0.0000  XYY=              0.0787
  XXY=             -1.2850  XXZ=             -0.0000  XZZ=             -0.0313  YZZ=             -0.3146
  YYZ=             -0.0000  XYZ=             -0.0000
 Hexadecapole moment (field-independent basis, Debye-Ang**3):
 XXXX=             -6.7377 YYYY=             -7.5665 ZZZZ=             -6.7768 XXXY=              0.0530
 XXXZ=             -0.0000 YYYX=             -0.0126 YYYZ=             -0.0000 ZZZX=             -0.0000
 ZZZY=             -0.0000 XXYY=             -1.8623 XXZZ=             -2.4194 YYZZ=             -2.5057
 XXYZ=              0.0000 YYXZ=              0.0000 ZZXY=              0.0350
 N-N= 9.010017666810D+00 E-N=-1.984414160592D+02  KE= 7.586031505725D+01
 Symmetry A'   KE= 7.139434965657D+01
 Symmetry A"   KE= 4.465965400679D+00
 No NMR shielding tensors so no spin-rotation constants.
 Leave Link  601 at Mon Feb 20 10:29:00 2023, MaxMem=   754974720 cpu:               1.0 elap:               0.5
 (Enter /opt/cluster/programs/g16-c.01/g16/l9999.exe)
 Unable to Open any file for archive entry.
 1\1\GINC-NODE105\SP\RHF\Aug-CC-pVDZ\H2O1\BOITTIER\20-Feb-2023\0\\#P HF
 /aug-cc-pVDZ scf(maxcycle=200)\\Gaussian input\\0,1\O,0,0.,0.11751,0.\
 H,0,0.7973622306,-0.5007896629,0.\H,0,-0.5116106314,-0.6936222715,0.\\
 Version=ES64L-G16RevC.01\State=1-A'\HF=-76.0259342\RMSD=7.041e-09\Dipo
 le=0.1662807,-0.8986541,0.\Quadrupole=0.7442942,0.3586384,-1.1029326,0
 .0134915,0.,0.\PG=CS [SG(H2O1)]\\@
 The archive entry for this job was punched.


 SUCCESS IS NEVER CERTAIN,
 FAILURE IS NEVER FINAL.
 Job cpu time:       0 days  0 hours  0 minutes  9.3 seconds.
 Elapsed time:       0 days  0 hours  0 minutes  4.1 seconds.
 File lengths (MBytes):  RWF=      6 Int=      0 D2E=      0 Chk=      1 Scr=      1
 Normal termination of Gaussian 16 at Mon Feb 20 10:29:00 2023.
