 Entering Gaussian System, Link 0=/opt/cluster/programs/g16-c.01/g16/g16
 Input=/scratch/boittier/jobs/tmp.7425430/gaussian_140_water_pbe0_dz.com
 Output=/scratch/boittier/jobs/tmp.7425430/gaussian_140_water_pbe0_dz.out
 Initial command:
 /opt/cluster/programs/g16-c.01/g16/l1.exe "/scratch/boittier/jobs/tmp.7425430/Gau-14566.inp" -scrdir="/scratch/boittier/jobs/tmp.7425430/"
 Entering Link 1 = /opt/cluster/programs/g16-c.01/g16/l1.exe PID=     14570.
  
 Copyright (c) 1988-2019, Gaussian, Inc.  All Rights Reserved.
  
 This is part of the Gaussian(R) 16 program.  It is based on
 the Gaussian(R) 09 system (copyright 2009, Gaussian, Inc.),
 the Gaussian(R) 03 system (copyright 2003, Gaussian, Inc.),
 the Gaussian(R) 98 system (copyright 1998, Gaussian, Inc.),
 the Gaussian(R) 94 system (copyright 1995, Gaussian, Inc.),
 the Gaussian 92(TM) system (copyright 1992, Gaussian, Inc.),
 the Gaussian 90(TM) system (copyright 1990, Gaussian, Inc.),
 the Gaussian 88(TM) system (copyright 1988, Gaussian, Inc.),
 the Gaussian 86(TM) system (copyright 1986, Carnegie Mellon
 University), and the Gaussian 82(TM) system (copyright 1983,
 Carnegie Mellon University). Gaussian is a federally registered
 trademark of Gaussian, Inc.
  
 This software contains proprietary and confidential information,
 including trade secrets, belonging to Gaussian, Inc.
  
 This software is provided under written license and may be
 used, copied, transmitted, or stored only in accord with that
 written license.
  
 The following legend is applicable only to US Government
 contracts under FAR:
  
                    RESTRICTED RIGHTS LEGEND
  
 Use, reproduction and disclosure by the US Government is
 subject to restrictions as set forth in subparagraphs (a)
 and (c) of the Commercial Computer Software - Restricted
 Rights clause in FAR 52.227-19.
  
 Gaussian, Inc.
 340 Quinnipiac St., Bldg. 40, Wallingford CT 06492
  
  
 ---------------------------------------------------------------
 Warning -- This program may not be used in any manner that
 competes with the business of Gaussian, Inc. or will provide
 assistance to any competitor of Gaussian, Inc.  The licensee
 of this program is prohibited from giving any competitor of
 Gaussian, Inc. access to this program.  By using this program,
 the user acknowledges that Gaussian, Inc. is engaged in the
 business of creating and licensing software in the field of
 computational chemistry and represents and warrants to the
 licensee that it is not a competitor of Gaussian, Inc. and that
 it will not use this program in any manner prohibited above.
 ---------------------------------------------------------------
  

 Cite this work as:
 Gaussian 16, Revision C.01,
 M. J. Frisch, G. W. Trucks, H. B. Schlegel, G. E. Scuseria, 
 M. A. Robb, J. R. Cheeseman, G. Scalmani, V. Barone, 
 G. A. Petersson, H. Nakatsuji, X. Li, M. Caricato, A. V. Marenich, 
 J. Bloino, B. G. Janesko, R. Gomperts, B. Mennucci, H. P. Hratchian, 
 J. V. Ortiz, A. F. Izmaylov, J. L. Sonnenberg, D. Williams-Young, 
 F. Ding, F. Lipparini, F. Egidi, J. Goings, B. Peng, A. Petrone, 
 T. Henderson, D. Ranasinghe, V. G. Zakrzewski, J. Gao, N. Rega, 
 G. Zheng, W. Liang, M. Hada, M. Ehara, K. Toyota, R. Fukuda, 
 J. Hasegawa, M. Ishida, T. Nakajima, Y. Honda, O. Kitao, H. Nakai, 
 T. Vreven, K. Throssell, J. A. Montgomery, Jr., J. E. Peralta, 
 F. Ogliaro, M. J. Bearpark, J. J. Heyd, E. N. Brothers, K. N. Kudin, 
 V. N. Staroverov, T. A. Keith, R. Kobayashi, J. Normand, 
 K. Raghavachari, A. P. Rendell, J. C. Burant, S. S. Iyengar, 
 J. Tomasi, M. Cossi, J. M. Millam, M. Klene, C. Adamo, R. Cammi, 
 J. W. Ochterski, R. L. Martin, K. Morokuma, O. Farkas, 
 J. B. Foresman, and D. J. Fox, Gaussian, Inc., Wallingford CT, 2019.
 
 ******************************************
 Gaussian 16:  ES64L-G16RevC.01  3-Jul-2019
                20-Mar-2023 
 ******************************************
 %nproc=4
 Will use up to    4 processors via shared memory.
 %mem=5760MB
 %chk=gaussian_140_water_pbe0_dz.chk
 ----------------------------------------
 #P PBE1PBE/aug-cc-pVDZ scf(maxcycle=200)
 ----------------------------------------
 1/38=1,172=1/1;
 2/12=2,17=6,18=5,40=1/2;
 3/5=16,7=10,11=2,25=1,30=1,74=-13/1,2,3;
 4//1;
 5/5=2,7=200,38=5/2;
 6/7=2,8=2,9=2,10=2,28=1/1;
 99/5=1,9=1/99;
 Leave Link    1 at Mon Mar 20 17:35:17 2023, MaxMem=   754974720 cpu:               0.2 elap:               0.1
 (Enter /opt/cluster/programs/g16-c.01/g16/l101.exe)
 --------------
 Gaussian input
 --------------
 Symbolic Z-matrix:
 Charge =  0 Multiplicity = 1
 O                     0.        0.11751   0. 
 H                     0.79736  -0.50079   0. 
 H                    -0.51161  -0.69362   0. 
 
 ITRead=  0  0  0
 MicOpt= -1 -1 -1
 NAtoms=      3 NQM=        3 NQMF=       0 NMMI=      0 NMMIF=      0
                NMic=       0 NMicF=      0.
                    Isotopes and Nuclear Properties:
 (Nuclear quadrupole moments (NQMom) in fm**2, nuclear magnetic moments (NMagM)
  in nuclear magnetons)

  Atom         1           2           3
 IAtWgt=          16           1           1
 AtmWgt=  15.9949146   1.0078250   1.0078250
 NucSpn=           0           1           1
 AtZEff=  -0.0000000  -0.0000000  -0.0000000
 NQMom=    0.0000000   0.0000000   0.0000000
 NMagM=    0.0000000   2.7928460   2.7928460
 AtZNuc=   8.0000000   1.0000000   1.0000000
 Leave Link  101 at Mon Mar 20 17:35:18 2023, MaxMem=   754974720 cpu:               0.7 elap:               0.4
 (Enter /opt/cluster/programs/g16-c.01/g16/l202.exe)
                          Input orientation:                          
 ---------------------------------------------------------------------
 Center     Atomic      Atomic             Coordinates (Angstroms)
 Number     Number       Type             X           Y           Z
 ---------------------------------------------------------------------
      1          8           0        0.000000    0.117510    0.000000
      2          1           0        0.797362   -0.500790    0.000000
      3          1           0       -0.511611   -0.693622    0.000000
 ---------------------------------------------------------------------
                    Distance matrix (angstroms):
                    1          2          3
     1  O    0.000000
     2  H    1.009000   0.000000
     3  H    0.959000   1.323100   0.000000
 Stoichiometry    H2O
 Framework group  CS[SG(H2O)]
 Deg. of freedom     3
 Full point group                 CS      NOp   2
 Largest Abelian subgroup         CS      NOp   2
 Largest concise Abelian subgroup C1      NOp   1
                         Standard orientation:                         
 ---------------------------------------------------------------------
 Center     Atomic      Atomic             Coordinates (Angstroms)
 Number     Number       Type             X           Y           Z
 ---------------------------------------------------------------------
      1          8           0        0.000000    0.145771    0.000000
      2          1           0        0.660689   -0.616837   -0.000000
      3          1           0       -0.660689   -0.549334   -0.000000
 ---------------------------------------------------------------------
 Rotational constants (GHZ):         588.6624381         518.5671585         275.6980203
 Leave Link  202 at Mon Mar 20 17:35:18 2023, MaxMem=   754974720 cpu:               0.1 elap:               0.1
 (Enter /opt/cluster/programs/g16-c.01/g16/l301.exe)
 Standard basis: Aug-CC-pVDZ (5D, 7F)
 Ernie: Thresh=  0.10000D-02 Tol=  0.10000D-05 Strict=F.
 Ernie:  2 primitive shells out of 39 were deleted.
 There are    32 symmetry adapted cartesian basis functions of A'  symmetry.
 There are    11 symmetry adapted cartesian basis functions of A"  symmetry.
 There are    30 symmetry adapted basis functions of A'  symmetry.
 There are    11 symmetry adapted basis functions of A"  symmetry.
    41 basis functions,    65 primitive gaussians,    43 cartesian basis functions
     5 alpha electrons        5 beta electrons
       nuclear repulsion energy         9.0100176668 Hartrees.
 IExCor= 1009 DFT=T Ex+Corr=PBE1PBE ExCW=0 ScaHFX=  0.250000
 ScaDFX=  0.750000  0.750000  1.000000  1.000000 ScalE2=  1.000000  1.000000
 IRadAn=      5 IRanWt=     -1 IRanGd=            0 ICorTp=0 IEmpDi=  4
 NAtoms=    3 NActive=    3 NUniq=    3 SFac= 1.00D+00 NAtFMM=   60 NAOKFM=F Big=F
 Integral buffers will be    131072 words long.
 Raffenetti 2 integral format.
 Two-electron integral symmetry is turned on.
 Leave Link  301 at Mon Mar 20 17:35:18 2023, MaxMem=   754974720 cpu:               0.3 elap:               0.2
 (Enter /opt/cluster/programs/g16-c.01/g16/l302.exe)
 NPDir=0 NMtPBC=     1 NCelOv=     1 NCel=       1 NClECP=     1 NCelD=      1
         NCelK=      1 NCelE2=     1 NClLst=     1 CellRange=     0.0.
 One-electron integrals computed using PRISM.
 One-electron integral symmetry used in STVInt
 NBasis=    41 RedAO= T EigKep=  1.84D-03  NBF=    30    11
 NBsUse=    41 1.00D-06 EigRej= -1.00D+00 NBFU=    30    11
 Precomputing XC quadrature grid using
 IXCGrd= 4 IRadAn=           5 IRanWt=          -1 IRanGd=           0 AccXCQ= 0.00D+00.
 Generated NRdTot=       0 NPtTot=           0 NUsed=           0 NTot=          32
 NSgBfM=    43    43    43    43    43 MxSgAt=     3 MxSgA2=     3.
 Leave Link  302 at Mon Mar 20 17:35:18 2023, MaxMem=   754974720 cpu:               1.3 elap:               0.5
 (Enter /opt/cluster/programs/g16-c.01/g16/l303.exe)
 DipDrv:  MaxL=1.
 Leave Link  303 at Mon Mar 20 17:35:19 2023, MaxMem=   754974720 cpu:               0.5 elap:               0.2
 (Enter /opt/cluster/programs/g16-c.01/g16/l401.exe)
 ExpMin= 2.97D-02 ExpMax= 1.17D+04 ExpMxC= 4.01D+02 IAcc=3 IRadAn=         5 AccDes= 0.00D+00
 Harris functional with IExCor= 1009 and IRadAn=       5 diagonalized for initial guess.
 HarFok:  IExCor= 1009 AccDes= 0.00D+00 IRadAn=         5 IDoV= 1 UseB2=F ITyADJ=14
 ICtDFT=  3500011 ScaDFX=  1.000000  1.000000  1.000000  1.000000
 FoFCou: FMM=F IPFlag=           0 FMFlag=      100000 FMFlg1=           0
         NFxFlg=           0 DoJE=T BraDBF=F KetDBF=T FulRan=T
         wScrn=  0.000000 ICntrl=       500 IOpCl=  0 I1Cent=   200000004 NGrid=           0
         NMat0=    1 NMatS0=      1 NMatT0=    0 NMatD0=    1 NMtDS0=    0 NMtDT0=    0
 Petite list used in FoFCou.
 Harris En= -76.3847404064580    
 JPrj=0 DoOrth=F DoCkMO=F.
 Initial guess orbital symmetries:
       Occupied  (A') (A') (A') (A') (A")
       Virtual   (A') (A') (A') (A") (A') (A') (A') (A') (A') (A")
                 (A") (A') (A') (A') (A') (A') (A") (A') (A") (A')
                 (A") (A') (A') (A") (A') (A') (A") (A') (A') (A')
                 (A') (A") (A') (A") (A') (A')
 The electronic state of the initial guess is 1-A'.
 Leave Link  401 at Mon Mar 20 17:35:20 2023, MaxMem=   754974720 cpu:               1.8 elap:               0.9
 (Enter /opt/cluster/programs/g16-c.01/g16/l502.exe)
 Keep R1 ints in memory in symmetry-blocked form, NReq=3831793.
 FoFCou: FMM=F IPFlag=           0 FMFlag=           0 FMFlg1=           0
         NFxFlg=           0 DoJE=F BraDBF=F KetDBF=F FulRan=T
         wScrn=  0.000000 ICntrl=       600 IOpCl=  0 I1Cent=           0 NGrid=           0
         NMat0=    1 NMatS0=    861 NMatT0=    0 NMatD0=    1 NMtDS0=    0 NMtDT0=    0
 Petite list used in FoFCou.
 Closed shell SCF:
 Using DIIS extrapolation, IDIIS=  1040.
 NGot=   754974720 LenX=   754771907 LenY=   754769617
 Requested convergence on RMS density matrix=1.00D-08 within 200 cycles.
 Requested convergence on MAX density matrix=1.00D-06.
 Requested convergence on             energy=1.00D-06.
 No special actions if energy rises.

 Cycle   1  Pass 1  IDiag  1:
 E= -76.2834971529632    
 DIIS: error= 5.07D-02 at cycle   1 NSaved=   1.
 NSaved= 1 IEnMin= 1 EnMin= -76.2834971529632     IErMin= 1 ErrMin= 5.07D-02
 ErrMax= 5.07D-02  0.00D+00 EMaxC= 1.00D-01 BMatC= 8.27D-02 BMatP= 8.27D-02
 IDIUse=3 WtCom= 4.93D-01 WtEn= 5.07D-01
 Coeff-Com:  0.100D+01
 Coeff-En:   0.100D+01
 Coeff:      0.100D+01
 Gap=     0.177 Goal=   None    Shift=    0.000
 GapD=    0.177 DampG=1.000 DampE=0.500 DampFc=0.5000 IDamp=-1.
 Damping current iteration by 5.00D-01
 RMSDP=1.03D-02 MaxDP=1.56D-01              OVMax= 1.96D-01

 Cycle   2  Pass 1  IDiag  1:
 E= -76.2970659730736     Delta-E=       -0.013568820110 Rises=F Damp=T
 DIIS: error= 1.93D-02 at cycle   2 NSaved=   2.
 NSaved= 2 IEnMin= 2 EnMin= -76.2970659730736     IErMin= 2 ErrMin= 1.93D-02
 ErrMax= 1.93D-02  0.00D+00 EMaxC= 1.00D-01 BMatC= 9.85D-03 BMatP= 8.27D-02
 IDIUse=3 WtCom= 8.07D-01 WtEn= 1.93D-01
 Coeff-Com:  0.247D+00 0.753D+00
 Coeff-En:   0.402D+00 0.598D+00
 Coeff:      0.277D+00 0.723D+00
 Gap=     0.306 Goal=   None    Shift=    0.000
 RMSDP=1.31D-03 MaxDP=1.70D-02 DE=-1.36D-02 OVMax= 1.25D-01

 Cycle   3  Pass 1  IDiag  1:
 E= -76.3480821291963     Delta-E=       -0.051016156123 Rises=F Damp=F
 DIIS: error= 2.23D-03 at cycle   3 NSaved=   3.
 NSaved= 3 IEnMin= 3 EnMin= -76.3480821291963     IErMin= 3 ErrMin= 2.23D-03
 ErrMax= 2.23D-03  0.00D+00 EMaxC= 1.00D-01 BMatC= 1.55D-04 BMatP= 9.85D-03
 IDIUse=3 WtCom= 9.78D-01 WtEn= 2.23D-02
 Coeff-Com:  0.244D-01-0.586D-01 0.103D+01
 Coeff-En:   0.000D+00 0.000D+00 0.100D+01
 Coeff:      0.238D-01-0.573D-01 0.103D+01
 Gap=     0.317 Goal=   None    Shift=    0.000
 RMSDP=1.65D-04 MaxDP=2.43D-03 DE=-5.10D-02 OVMax= 2.75D-03

 Cycle   4  Pass 1  IDiag  1:
 E= -76.3481865702571     Delta-E=       -0.000104441061 Rises=F Damp=F
 DIIS: error= 2.91D-04 at cycle   4 NSaved=   4.
 NSaved= 4 IEnMin= 4 EnMin= -76.3481865702571     IErMin= 4 ErrMin= 2.91D-04
 ErrMax= 2.91D-04  0.00D+00 EMaxC= 1.00D-01 BMatC= 3.07D-06 BMatP= 1.55D-04
 IDIUse=3 WtCom= 9.97D-01 WtEn= 2.91D-03
 Coeff-Com:  0.671D-02-0.215D-01 0.237D+00 0.778D+00
 Coeff-En:   0.000D+00 0.000D+00 0.000D+00 0.100D+01
 Coeff:      0.669D-02-0.214D-01 0.236D+00 0.779D+00
 Gap=     0.317 Goal=   None    Shift=    0.000
 RMSDP=1.93D-05 MaxDP=3.07D-04 DE=-1.04D-04 OVMax= 4.32D-04

 Cycle   5  Pass 1  IDiag  1:
 E= -76.3481886294755     Delta-E=       -0.000002059218 Rises=F Damp=F
 DIIS: error= 9.92D-05 at cycle   5 NSaved=   5.
 NSaved= 5 IEnMin= 5 EnMin= -76.3481886294755     IErMin= 5 ErrMin= 9.92D-05
 ErrMax= 9.92D-05  0.00D+00 EMaxC= 1.00D-01 BMatC= 2.53D-07 BMatP= 3.07D-06
 IDIUse=1 WtCom= 1.00D+00 WtEn= 0.00D+00
 Coeff-Com:  0.141D-02-0.220D-02 0.371D-02 0.824D-01 0.915D+00
 Coeff:      0.141D-02-0.220D-02 0.371D-02 0.824D-01 0.915D+00
 Gap=     0.318 Goal=   None    Shift=    0.000
 RMSDP=7.64D-06 MaxDP=1.01D-04 DE=-2.06D-06 OVMax= 1.38D-04

 Cycle   6  Pass 1  IDiag  1:
 E= -76.3481888302174     Delta-E=       -0.000000200742 Rises=F Damp=F
 DIIS: error= 5.13D-06 at cycle   6 NSaved=   6.
 NSaved= 6 IEnMin= 6 EnMin= -76.3481888302174     IErMin= 6 ErrMin= 5.13D-06
 ErrMax= 5.13D-06  0.00D+00 EMaxC= 1.00D-01 BMatC= 5.07D-10 BMatP= 2.53D-07
 IDIUse=1 WtCom= 1.00D+00 WtEn= 0.00D+00
 Coeff-Com: -0.501D-04 0.577D-04-0.400D-03-0.957D-02-0.478D-01 0.106D+01
 Coeff:     -0.501D-04 0.577D-04-0.400D-03-0.957D-02-0.478D-01 0.106D+01
 Gap=     0.318 Goal=   None    Shift=    0.000
 RMSDP=5.13D-07 MaxDP=7.36D-06 DE=-2.01D-07 OVMax= 1.00D-05

 Cycle   7  Pass 1  IDiag  1:
 E= -76.3481888306687     Delta-E=       -0.000000000451 Rises=F Damp=F
 DIIS: error= 4.33D-07 at cycle   7 NSaved=   7.
 NSaved= 7 IEnMin= 7 EnMin= -76.3481888306687     IErMin= 7 ErrMin= 4.33D-07
 ErrMax= 4.33D-07  0.00D+00 EMaxC= 1.00D-01 BMatC= 7.55D-12 BMatP= 5.07D-10
 IDIUse=1 WtCom= 1.00D+00 WtEn= 0.00D+00
 Coeff-Com: -0.373D-04 0.529D-04-0.201D-03-0.379D-02-0.276D-01 0.289D+00
 Coeff-Com:  0.742D+00
 Coeff:     -0.373D-04 0.529D-04-0.201D-03-0.379D-02-0.276D-01 0.289D+00
 Coeff:      0.742D+00
 Gap=     0.318 Goal=   None    Shift=    0.000
 RMSDP=5.71D-08 MaxDP=5.67D-07 DE=-4.51D-10 OVMax= 1.14D-06

 Cycle   8  Pass 1  IDiag  1:
 E= -76.3481888306754     Delta-E=       -0.000000000007 Rises=F Damp=F
 DIIS: error= 8.45D-08 at cycle   8 NSaved=   8.
 NSaved= 8 IEnMin= 8 EnMin= -76.3481888306754     IErMin= 8 ErrMin= 8.45D-08
 ErrMax= 8.45D-08  0.00D+00 EMaxC= 1.00D-01 BMatC= 3.11D-13 BMatP= 7.55D-12
 IDIUse=1 WtCom= 1.00D+00 WtEn= 0.00D+00
 Coeff-Com: -0.966D-06 0.248D-05-0.135D-04 0.287D-03 0.778D-03-0.297D-01
 Coeff-Com:  0.945D-02 0.102D+01
 Coeff:     -0.966D-06 0.248D-05-0.135D-04 0.287D-03 0.778D-03-0.297D-01
 Coeff:      0.945D-02 0.102D+01
 Gap=     0.318 Goal=   None    Shift=    0.000
 RMSDP=1.01D-08 MaxDP=1.83D-07 DE=-6.72D-12 OVMax= 3.11D-07

 Cycle   9  Pass 1  IDiag  1:
 E= -76.3481888306757     Delta-E=       -0.000000000000 Rises=F Damp=F
 DIIS: error= 8.40D-09 at cycle   9 NSaved=   9.
 NSaved= 9 IEnMin= 9 EnMin= -76.3481888306757     IErMin= 9 ErrMin= 8.40D-09
 ErrMax= 8.40D-09  0.00D+00 EMaxC= 1.00D-01 BMatC= 2.53D-15 BMatP= 3.11D-13
 IDIUse=1 WtCom= 1.00D+00 WtEn= 0.00D+00
 Coeff-Com:  0.180D-06-0.292D-06 0.143D-05 0.205D-04 0.214D-03-0.141D-02
 Coeff-Com: -0.424D-02-0.919D-02 0.101D+01
 Coeff:      0.180D-06-0.292D-06 0.143D-05 0.205D-04 0.214D-03-0.141D-02
 Coeff:     -0.424D-02-0.919D-02 0.101D+01
 Gap=     0.318 Goal=   None    Shift=    0.000
 RMSDP=1.09D-09 MaxDP=1.50D-08 DE=-2.27D-13 OVMax= 2.34D-08

 SCF Done:  E(RPBE1PBE) =  -76.3481888307     A.U. after    9 cycles
            NFock=  9  Conv=0.11D-08     -V/T= 2.0060
 KE= 7.589639669645D+01 PE=-1.984636562077D+02 EE= 3.720905301380D+01
 Leave Link  502 at Mon Mar 20 17:35:24 2023, MaxMem=   754974720 cpu:               8.6 elap:               4.3
 (Enter /opt/cluster/programs/g16-c.01/g16/l601.exe)
 Copying SCF densities to generalized density rwf, IOpCl= 0 IROHF=0.

 **********************************************************************

            Population analysis using the SCF Density.

 **********************************************************************

 Orbital symmetries:
       Occupied  (A') (A') (A') (A') (A")
       Virtual   (A') (A') (A') (A") (A') (A') (A') (A') (A') (A")
                 (A") (A') (A') (A') (A') (A') (A") (A') (A") (A')
                 (A") (A') (A') (A") (A') (A') (A") (A') (A') (A')
                 (A') (A") (A') (A") (A') (A')
 The electronic state is 1-A'.
 Alpha  occ. eigenvalues --  -19.24138  -1.05358  -0.50229  -0.44815  -0.33538
 Alpha virt. eigenvalues --   -0.01779   0.03350   0.10601   0.13372   0.14438
 Alpha virt. eigenvalues --    0.15948   0.18435   0.26217   0.27254   0.29948
 Alpha virt. eigenvalues --    0.30649   0.46804   0.49708   0.54227   0.60090
 Alpha virt. eigenvalues --    0.78018   0.93226   0.93338   0.96248   1.05935
 Alpha virt. eigenvalues --    1.18394   1.19485   1.36078   1.73237   1.76329
 Alpha virt. eigenvalues --    1.83660   1.87518   2.17796   2.30275   2.37764
 Alpha virt. eigenvalues --    2.77188   3.30694   3.30720   3.32195   3.60917
 Alpha virt. eigenvalues --    3.85308
          Condensed to atoms (all electrons):
               1          2          3
     1  O    7.678284   0.287387   0.301880
     2  H    0.287387   0.585826  -0.027741
     3  H    0.301880  -0.027741   0.612837
 Mulliken charges:
               1
     1  O   -0.267551
     2  H    0.154527
     3  H    0.113024
 Sum of Mulliken charges =   0.00000
 Mulliken charges with hydrogens summed into heavy atoms:
               1
     1  O    0.000000
 Electronic spatial extent (au):  <R**2>=             20.2137
 Charge=              0.0000 electrons
 Dipole moment (field-independent basis, Debye):
    X=             -0.0327    Y=             -2.1472    Z=             -0.0000  Tot=              2.1474
 Quadrupole moment (field-independent basis, Debye-Ang):
   XX=             -5.2999   YY=             -5.8318   ZZ=             -7.7697
   XY=             -0.0815   XZ=              0.0000   YZ=              0.0000
 Traceless Quadrupole moment (field-independent basis, Debye-Ang):
   XX=              1.0006   YY=              0.4687   ZZ=             -1.4693
   XY=             -0.0815   XZ=              0.0000   YZ=              0.0000
 Octapole moment (field-independent basis, Debye-Ang**2):
  XXX=             -0.0863  YYY=             -1.3419  ZZZ=             -0.0000  XYY=              0.0720
  XXY=             -1.1616  XXZ=             -0.0000  XZZ=             -0.0297  YZZ=             -0.2433
  YYZ=             -0.0000  XYZ=             -0.0000
 Hexadecapole moment (field-independent basis, Debye-Ang**3):
 XXXX=             -7.2464 YYYY=             -8.2670 ZZZZ=             -7.5908 XXXY=              0.0515
 XXXZ=             -0.0000 YYYX=             -0.0061 YYYZ=             -0.0000 ZZZX=             -0.0000
 ZZZY=             -0.0000 XXYY=             -2.1119 XXZZ=             -2.6439 YYZZ=             -2.7499
 XXYZ=              0.0000 YYXZ=             -0.0000 ZZXY=              0.0345
 N-N= 9.010017666810D+00 E-N=-1.984636558930D+02  KE= 7.589639669645D+01
 Symmetry A'   KE= 7.144364205736D+01
 Symmetry A"   KE= 4.452754639091D+00
 No NMR shielding tensors so no spin-rotation constants.
 Leave Link  601 at Mon Mar 20 17:35:25 2023, MaxMem=   754974720 cpu:               1.5 elap:               0.8
 (Enter /opt/cluster/programs/g16-c.01/g16/l9999.exe)
 Unable to Open any file for archive entry.
 1\1\GINC-NODE60\SP\RPBE1PBE\Aug-CC-pVDZ\H2O1\BOITTIER\20-Mar-2023\0\\#
 P PBE1PBE/aug-cc-pVDZ scf(maxcycle=200)\\Gaussian input\\0,1\O,0,0.,0.
 11751,0.\H,0,0.7973622306,-0.5007896629,0.\H,0,-0.5116106314,-0.693622
 2715,0.\\Version=ES64L-G16RevC.01\State=1-A'\HF=-76.3481888\RMSD=1.091
 e-09\Dipole=0.1529949,-0.8308963,0.\Quadrupole=0.7520159,0.3403458,-1.
 0923617,0.0200671,0.,0.\PG=CS [SG(H2O1)]\\@
 The archive entry for this job was punched.


 ACCORDING TO HEN3RY, LIFE IS MUCH LIKE A SEWER........
 YOU GET OUT OF IT JUST WHAT YOU PUT INTO IT...........
                         TOM LEHRER - (THE 3 IS SILENT)
 Job cpu time:       0 days  0 hours  0 minutes 15.2 seconds.
 Elapsed time:       0 days  0 hours  0 minutes  7.4 seconds.
 File lengths (MBytes):  RWF=      6 Int=      0 D2E=      0 Chk=      1 Scr=      1
 Normal termination of Gaussian 16 at Mon Mar 20 17:35:25 2023.
