 Entering Gaussian System, Link 0=/opt/cluster/programs/g16-c.01/g16/g16
 Input=/scratch/boittier/jobs/tmp.7262079/gaussian_136_water_wb97_ptz.com
 Output=/scratch/boittier/jobs/tmp.7262079/gaussian_136_water_wb97_ptz.out
 Initial command:
 /opt/cluster/programs/g16-c.01/g16/l1.exe "/scratch/boittier/jobs/tmp.7262079/Gau-51691.inp" -scrdir="/scratch/boittier/jobs/tmp.7262079/"
 Entering Link 1 = /opt/cluster/programs/g16-c.01/g16/l1.exe PID=     51692.
  
 Copyright (c) 1988-2019, Gaussian, Inc.  All Rights Reserved.
  
 This is part of the Gaussian(R) 16 program.  It is based on
 the Gaussian(R) 09 system (copyright 2009, Gaussian, Inc.),
 the Gaussian(R) 03 system (copyright 2003, Gaussian, Inc.),
 the Gaussian(R) 98 system (copyright 1998, Gaussian, Inc.),
 the Gaussian(R) 94 system (copyright 1995, Gaussian, Inc.),
 the Gaussian 92(TM) system (copyright 1992, Gaussian, Inc.),
 the Gaussian 90(TM) system (copyright 1990, Gaussian, Inc.),
 the Gaussian 88(TM) system (copyright 1988, Gaussian, Inc.),
 the Gaussian 86(TM) system (copyright 1986, Carnegie Mellon
 University), and the Gaussian 82(TM) system (copyright 1983,
 Carnegie Mellon University). Gaussian is a federally registered
 trademark of Gaussian, Inc.
  
 This software contains proprietary and confidential information,
 including trade secrets, belonging to Gaussian, Inc.
  
 This software is provided under written license and may be
 used, copied, transmitted, or stored only in accord with that
 written license.
  
 The following legend is applicable only to US Government
 contracts under FAR:
  
                    RESTRICTED RIGHTS LEGEND
  
 Use, reproduction and disclosure by the US Government is
 subject to restrictions as set forth in subparagraphs (a)
 and (c) of the Commercial Computer Software - Restricted
 Rights clause in FAR 52.227-19.
  
 Gaussian, Inc.
 340 Quinnipiac St., Bldg. 40, Wallingford CT 06492
  
  
 ---------------------------------------------------------------
 Warning -- This program may not be used in any manner that
 competes with the business of Gaussian, Inc. or will provide
 assistance to any competitor of Gaussian, Inc.  The licensee
 of this program is prohibited from giving any competitor of
 Gaussian, Inc. access to this program.  By using this program,
 the user acknowledges that Gaussian, Inc. is engaged in the
 business of creating and licensing software in the field of
 computational chemistry and represents and warrants to the
 licensee that it is not a competitor of Gaussian, Inc. and that
 it will not use this program in any manner prohibited above.
 ---------------------------------------------------------------
  

 Cite this work as:
 Gaussian 16, Revision C.01,
 M. J. Frisch, G. W. Trucks, H. B. Schlegel, G. E. Scuseria, 
 M. A. Robb, J. R. Cheeseman, G. Scalmani, V. Barone, 
 G. A. Petersson, H. Nakatsuji, X. Li, M. Caricato, A. V. Marenich, 
 J. Bloino, B. G. Janesko, R. Gomperts, B. Mennucci, H. P. Hratchian, 
 J. V. Ortiz, A. F. Izmaylov, J. L. Sonnenberg, D. Williams-Young, 
 F. Ding, F. Lipparini, F. Egidi, J. Goings, B. Peng, A. Petrone, 
 T. Henderson, D. Ranasinghe, V. G. Zakrzewski, J. Gao, N. Rega, 
 G. Zheng, W. Liang, M. Hada, M. Ehara, K. Toyota, R. Fukuda, 
 J. Hasegawa, M. Ishida, T. Nakajima, Y. Honda, O. Kitao, H. Nakai, 
 T. Vreven, K. Throssell, J. A. Montgomery, Jr., J. E. Peralta, 
 F. Ogliaro, M. J. Bearpark, J. J. Heyd, E. N. Brothers, K. N. Kudin, 
 V. N. Staroverov, T. A. Keith, R. Kobayashi, J. Normand, 
 K. Raghavachari, A. P. Rendell, J. C. Burant, S. S. Iyengar, 
 J. Tomasi, M. Cossi, J. M. Millam, M. Klene, C. Adamo, R. Cammi, 
 J. W. Ochterski, R. L. Martin, K. Morokuma, O. Farkas, 
 J. B. Foresman, and D. J. Fox, Gaussian, Inc., Wallingford CT, 2019.
 
 ******************************************
 Gaussian 16:  ES64L-G16RevC.01  3-Jul-2019
                 8-Feb-2023 
 ******************************************
 %nproc=4
 Will use up to    4 processors via shared memory.
 %mem=5760MB
 %chk=gaussian_136_water_wb97_ptz.chk
 ------------------------------------
 #P wB97XD/6-311g** scf(maxcycle=200)
 ------------------------------------
 1/38=1,172=1/1;
 2/12=2,17=6,18=5,40=1/2;
 3/5=4,6=6,7=101,11=2,25=1,30=1,74=-58/1,2,3;
 4//1;
 5/5=2,7=200,38=5/2;
 6/7=2,8=2,9=2,10=2,28=1/1;
 99/5=1,9=1/99;
 Leave Link    1 at Wed Feb  8 14:42:16 2023, MaxMem=   754974720 cpu:               0.2 elap:               0.1
 (Enter /opt/cluster/programs/g16-c.01/g16/l101.exe)
 --------------
 Gaussian input
 --------------
 Symbolic Z-matrix:
 Charge =  0 Multiplicity = 1
 O                     0.        0.11751   0. 
 H                     0.79736  -0.50079   0. 
 H                    -0.81867  -0.27753   0. 
 
 ITRead=  0  0  0
 MicOpt= -1 -1 -1
 NAtoms=      3 NQM=        3 NQMF=       0 NMMI=      0 NMMIF=      0
                NMic=       0 NMicF=      0.
                    Isotopes and Nuclear Properties:
 (Nuclear quadrupole moments (NQMom) in fm**2, nuclear magnetic moments (NMagM)
  in nuclear magnetons)

  Atom         1           2           3
 IAtWgt=          16           1           1
 AtmWgt=  15.9949146   1.0078250   1.0078250
 NucSpn=           0           1           1
 AtZEff=  -0.0000000  -0.0000000  -0.0000000
 NQMom=    0.0000000   0.0000000   0.0000000
 NMagM=    0.0000000   2.7928460   2.7928460
 AtZNuc=   8.0000000   1.0000000   1.0000000
 Leave Link  101 at Wed Feb  8 14:42:17 2023, MaxMem=   754974720 cpu:               1.2 elap:               0.6
 (Enter /opt/cluster/programs/g16-c.01/g16/l202.exe)
                          Input orientation:                          
 ---------------------------------------------------------------------
 Center     Atomic      Atomic             Coordinates (Angstroms)
 Number     Number       Type             X           Y           Z
 ---------------------------------------------------------------------
      1          8           0        0.000000    0.117510    0.000000
      2          1           0        0.797362   -0.500790    0.000000
      3          1           0       -0.818673   -0.277528    0.000000
 ---------------------------------------------------------------------
                    Distance matrix (angstroms):
                    1          2          3
     1  O    0.000000
     2  H    1.009000   0.000000
     3  H    0.909000   1.631385   0.000000
 Stoichiometry    H2O
 Framework group  CS[SG(H2O)]
 Deg. of freedom     3
 Full point group                 CS      NOp   2
 Largest Abelian subgroup         CS      NOp   2
 Largest concise Abelian subgroup C1      NOp   1
                         Standard orientation:                         
 ---------------------------------------------------------------------
 Center     Atomic      Atomic             Coordinates (Angstroms)
 Number     Number       Type             X           Y           Z
 ---------------------------------------------------------------------
      1          8           0        0.000000    0.101356    0.000000
      2          1           0        0.810186   -0.500041   -0.000000
      3          1           0       -0.810186   -0.310808    0.000000
 ---------------------------------------------------------------------
 Rotational constants (GHZ):        1122.0085721         374.2341109         280.6322030
 Leave Link  202 at Wed Feb  8 14:42:17 2023, MaxMem=   754974720 cpu:               0.0 elap:               0.0
 (Enter /opt/cluster/programs/g16-c.01/g16/l301.exe)
 Standard basis: 6-311G(d,p) (5D, 7F)
 Ernie: Thresh=  0.10000D-02 Tol=  0.10000D-05 Strict=F.
 There are    24 symmetry adapted cartesian basis functions of A'  symmetry.
 There are     7 symmetry adapted cartesian basis functions of A"  symmetry.
 There are    23 symmetry adapted basis functions of A'  symmetry.
 There are     7 symmetry adapted basis functions of A"  symmetry.
    30 basis functions,    48 primitive gaussians,    31 cartesian basis functions
     5 alpha electrons        5 beta electrons
       nuclear repulsion energy         9.1772549095 Hartrees.
 IExCor= 4639 DFT=T Ex+Corr=wB97XD ExCW=0 ScaHFX=  1.000000
 ScaDFX=  1.000000  1.000000  1.000000  1.000000 ScalE2=  1.000000  1.000000
 IRadAn=      5 IRanWt=     -1 IRanGd=            0 ICorTp=0 IEmpDi=121
 HFx  wShort=  0.000000 wLong=  0.200000 cFull=  0.222036 cShort=  0.000000 cLong=  0.777964
 DFx  wShort=  0.000000 wLong=  0.200000 cFull=  0.000000 cShort=  0.000000 cLong=  1.000000
 NAtoms=    3 NActive=    3 NUniq=    3 SFac= 1.00D+00 NAtFMM=   60 NAOKFM=F Big=F
 Integral buffers will be    131072 words long.
 Raffenetti 2 integral format.
 Two-electron integral symmetry is turned on.
 R6Disp:  Grimme-D2 Dispersion energy=       -0.0000410208 Hartrees.
 Nuclear repulsion after empirical dispersion term =        9.1772138887 Hartrees.
 Leave Link  301 at Wed Feb  8 14:42:17 2023, MaxMem=   754974720 cpu:               0.2 elap:               0.1
 (Enter /opt/cluster/programs/g16-c.01/g16/l302.exe)
 NPDir=0 NMtPBC=     1 NCelOv=     1 NCel=       1 NClECP=     1 NCelD=      1
         NCelK=      1 NCelE2=     1 NClLst=     1 CellRange=     0.0.
 One-electron integrals computed using PRISM.
 One-electron integral symmetry used in STVInt
 NBasis=    30 RedAO= T EigKep=  1.95D-02  NBF=    23     7
 NBsUse=    30 1.00D-06 EigRej= -1.00D+00 NBFU=    23     7
 Precomputing XC quadrature grid using
 IXCGrd= 4 IRadAn=           5 IRanWt=          -1 IRanGd=           0 AccXCQ= 0.00D+00.
 Generated NRdTot=       0 NPtTot=           0 NUsed=           0 NTot=          32
 NSgBfM=    31    31    31    31    31 MxSgAt=     3 MxSgA2=     3.
 Leave Link  302 at Wed Feb  8 14:42:17 2023, MaxMem=   754974720 cpu:               0.6 elap:               0.2
 (Enter /opt/cluster/programs/g16-c.01/g16/l303.exe)
 DipDrv:  MaxL=1.
 Leave Link  303 at Wed Feb  8 14:42:17 2023, MaxMem=   754974720 cpu:               0.5 elap:               0.2
 (Enter /opt/cluster/programs/g16-c.01/g16/l401.exe)
 ExpMin= 1.03D-01 ExpMax= 8.59D+03 ExpMxC= 1.30D+03 IAcc=3 IRadAn=         5 AccDes= 0.00D+00
 Harris functional with IExCor= 4639 and IRadAn=       5 diagonalized for initial guess.
 HarFok:  IExCor= 4639 AccDes= 0.00D+00 IRadAn=         5 IDoV= 1 UseB2=F ITyADJ=14
 ICtDFT=  3500011 ScaDFX=  1.000000  1.000000  1.000000  1.000000
 FoFCou: FMM=F IPFlag=           0 FMFlag=      100000 FMFlg1=           0
         NFxFlg=           0 DoJE=T BraDBF=F KetDBF=T FulRan=T
         wScrn=  0.000000 ICntrl=       500 IOpCl=  0 I1Cent=   200000004 NGrid=           0
         NMat0=    1 NMatS0=      1 NMatT0=    0 NMatD0=    1 NMtDS0=    0 NMtDT0=    0
 Petite list used in FoFCou.
 Harris En= -73.6056195457915    
 JPrj=0 DoOrth=F DoCkMO=F.
 Initial guess orbital symmetries:
       Occupied  (A') (A') (A') (A') (A")
       Virtual   (A') (A') (A') (A') (A') (A") (A') (A') (A") (A')
                 (A") (A') (A') (A') (A') (A') (A") (A") (A') (A')
                 (A') (A") (A') (A') (A')
 The electronic state of the initial guess is 1-A'.
 Leave Link  401 at Wed Feb  8 14:42:19 2023, MaxMem=   754974720 cpu:               2.7 elap:               1.4
 (Enter /opt/cluster/programs/g16-c.01/g16/l502.exe)
 Keep R1 ints in memory in symmetry-blocked form, NReq=3688183.
 FoFCou: FMM=F IPFlag=           0 FMFlag=           0 FMFlg1=           0
         NFxFlg=           0 DoJE=F BraDBF=F KetDBF=F FulRan=T
         wScrn=  0.000000 ICntrl=       600 IOpCl=  0 I1Cent=           0 NGrid=           0
         NMat0=    1 NMatS0=    465 NMatT0=    0 NMatD0=    1 NMtDS0=    0 NMtDT0=    0
 Petite list used in FoFCou.
 Closed shell SCF:
 Using DIIS extrapolation, IDIIS=  1040.
 NGot=   754974720 LenX=   754911268 LenY=   754909866
 Requested convergence on RMS density matrix=1.00D-08 within 200 cycles.
 Requested convergence on MAX density matrix=1.00D-06.
 Requested convergence on             energy=1.00D-06.
 No special actions if energy rises.
 Integral accuracy reduced to 1.0D-05 until final iterations.

 Cycle   1  Pass 0  IDiag  1:
 E= -76.4047813487404    
 DIIS: error= 8.31D-02 at cycle   1 NSaved=   1.
 NSaved= 1 IEnMin= 1 EnMin= -76.4047813487404     IErMin= 1 ErrMin= 8.31D-02
 ErrMax= 8.31D-02  0.00D+00 EMaxC= 1.00D-01 BMatC= 1.29D-01 BMatP= 1.29D-01
 IDIUse=3 WtCom= 1.69D-01 WtEn= 8.31D-01
 Coeff-Com:  0.100D+01
 Coeff-En:   0.100D+01
 Coeff:      0.100D+01
 Gap=     0.487 Goal=   None    Shift=    0.000
 GapD=    0.487 DampG=2.000 DampE=0.500 DampFc=1.0000 IDamp=-1.
 RMSDP=2.36D-03 MaxDP=2.01D-02              OVMax= 3.63D-02

 Cycle   2  Pass 0  IDiag  1:
 E= -76.4143351091190     Delta-E=       -0.009553760379 Rises=F Damp=F
 DIIS: error= 6.43D-03 at cycle   2 NSaved=   2.
 NSaved= 2 IEnMin= 2 EnMin= -76.4143351091190     IErMin= 2 ErrMin= 6.43D-03
 ErrMax= 6.43D-03  0.00D+00 EMaxC= 1.00D-01 BMatC= 8.73D-04 BMatP= 1.29D-01
 IDIUse=3 WtCom= 9.36D-01 WtEn= 6.43D-02
 Coeff-Com:  0.415D-01 0.958D+00
 Coeff-En:   0.000D+00 0.100D+01
 Coeff:      0.388D-01 0.961D+00
 Gap=     0.509 Goal=   None    Shift=    0.000
 RMSDP=7.36D-04 MaxDP=9.55D-03 DE=-9.55D-03 OVMax= 9.17D-03

 Cycle   3  Pass 0  IDiag  1:
 E= -76.4145263529126     Delta-E=       -0.000191243794 Rises=F Damp=F
 DIIS: error= 4.84D-03 at cycle   3 NSaved=   3.
 NSaved= 3 IEnMin= 3 EnMin= -76.4145263529126     IErMin= 3 ErrMin= 4.84D-03
 ErrMax= 4.84D-03  0.00D+00 EMaxC= 1.00D-01 BMatC= 4.93D-04 BMatP= 8.73D-04
 IDIUse=3 WtCom= 9.52D-01 WtEn= 4.84D-02
 Coeff-Com:  0.202D-01 0.446D+00 0.533D+00
 Coeff-En:   0.000D+00 0.352D+00 0.648D+00
 Coeff:      0.192D-01 0.442D+00 0.539D+00
 Gap=     0.500 Goal=   None    Shift=    0.000
 RMSDP=3.49D-04 MaxDP=3.97D-03 DE=-1.91D-04 OVMax= 4.94D-03

 Cycle   4  Pass 0  IDiag  1:
 E= -76.4148212885574     Delta-E=       -0.000294935645 Rises=F Damp=F
 DIIS: error= 6.37D-04 at cycle   4 NSaved=   4.
 NSaved= 4 IEnMin= 4 EnMin= -76.4148212885574     IErMin= 4 ErrMin= 6.37D-04
 ErrMax= 6.37D-04  0.00D+00 EMaxC= 1.00D-01 BMatC= 7.72D-06 BMatP= 4.93D-04
 IDIUse=3 WtCom= 9.94D-01 WtEn= 6.37D-03
 Coeff-Com:  0.181D-02 0.523D-01 0.138D+00 0.808D+00
 Coeff-En:   0.000D+00 0.000D+00 0.000D+00 0.100D+01
 Coeff:      0.180D-02 0.520D-01 0.137D+00 0.809D+00
 Gap=     0.501 Goal=   None    Shift=    0.000
 RMSDP=5.44D-05 MaxDP=6.91D-04 DE=-2.95D-04 OVMax= 5.63D-04

 Cycle   5  Pass 0  IDiag  1:
 E= -76.4148262361961     Delta-E=       -0.000004947639 Rises=F Damp=F
 DIIS: error= 6.68D-05 at cycle   5 NSaved=   5.
 NSaved= 5 IEnMin= 5 EnMin= -76.4148262361961     IErMin= 5 ErrMin= 6.68D-05
 ErrMax= 6.68D-05  0.00D+00 EMaxC= 1.00D-01 BMatC= 8.48D-08 BMatP= 7.72D-06
 IDIUse=1 WtCom= 1.00D+00 WtEn= 0.00D+00
 Coeff-Com: -0.766D-03-0.201D-01-0.251D-01-0.415D-01 0.109D+01
 Coeff:     -0.766D-03-0.201D-01-0.251D-01-0.415D-01 0.109D+01
 Gap=     0.501 Goal=   None    Shift=    0.000
 RMSDP=2.23D-05 MaxDP=2.18D-04 DE=-4.95D-06 OVMax= 3.30D-04

 Cycle   6  Pass 0  IDiag  1:
 E= -76.4148264263537     Delta-E=       -0.000000190158 Rises=F Damp=F
 DIIS: error= 1.22D-05 at cycle   6 NSaved=   6.
 NSaved= 6 IEnMin= 6 EnMin= -76.4148264263537     IErMin= 6 ErrMin= 1.22D-05
 ErrMax= 1.22D-05  0.00D+00 EMaxC= 1.00D-01 BMatC= 4.52D-09 BMatP= 8.48D-08
 IDIUse=1 WtCom= 1.00D+00 WtEn= 0.00D+00
 Coeff-Com:  0.465D-04 0.771D-03 0.124D-02-0.167D-01-0.919D-01 0.111D+01
 Coeff:      0.465D-04 0.771D-03 0.124D-02-0.167D-01-0.919D-01 0.111D+01
 Gap=     0.501 Goal=   None    Shift=    0.000
 RMSDP=4.98D-06 MaxDP=5.44D-05 DE=-1.90D-07 OVMax= 8.03D-05

 Initial convergence to 1.0D-05 achieved.  Increase integral accuracy.
 Cycle   7  Pass 1  IDiag  1:
 E= -76.4148292033897     Delta-E=       -0.000002777036 Rises=F Damp=F
 DIIS: error= 1.35D-05 at cycle   1 NSaved=   1.
 NSaved= 1 IEnMin= 1 EnMin= -76.4148292033897     IErMin= 1 ErrMin= 1.35D-05
 ErrMax= 1.35D-05  0.00D+00 EMaxC= 1.00D-01 BMatC= 4.74D-09 BMatP= 4.74D-09
 IDIUse=1 WtCom= 1.00D+00 WtEn= 0.00D+00
 Coeff-Com:  0.100D+01
 Coeff:      0.100D+01
 Gap=     0.501 Goal=   None    Shift=    0.000
 RMSDP=4.98D-06 MaxDP=5.44D-05 DE=-2.78D-06 OVMax= 1.79D-05

 Cycle   8  Pass 1  IDiag  1:
 E= -76.4148292068464     Delta-E=       -0.000000003457 Rises=F Damp=F
 DIIS: error= 1.75D-06 at cycle   2 NSaved=   2.
 NSaved= 2 IEnMin= 2 EnMin= -76.4148292068464     IErMin= 2 ErrMin= 1.75D-06
 ErrMax= 1.75D-06  0.00D+00 EMaxC= 1.00D-01 BMatC= 1.39D-10 BMatP= 4.74D-09
 IDIUse=1 WtCom= 1.00D+00 WtEn= 0.00D+00
 Coeff-Com: -0.300D-01 0.103D+01
 Coeff:     -0.300D-01 0.103D+01
 Gap=     0.501 Goal=   None    Shift=    0.000
 RMSDP=5.54D-07 MaxDP=5.80D-06 DE=-3.46D-09 OVMax= 9.76D-06

 Cycle   9  Pass 1  IDiag  1:
 E= -76.4148292069533     Delta-E=       -0.000000000107 Rises=F Damp=F
 DIIS: error= 2.41D-06 at cycle   3 NSaved=   3.
 NSaved= 3 IEnMin= 3 EnMin= -76.4148292069533     IErMin= 2 ErrMin= 1.75D-06
 ErrMax= 2.41D-06  0.00D+00 EMaxC= 1.00D-01 BMatC= 1.16D-10 BMatP= 1.39D-10
 IDIUse=1 WtCom= 1.00D+00 WtEn= 0.00D+00
 Coeff-Com: -0.447D-01 0.505D+00 0.540D+00
 Coeff:     -0.447D-01 0.505D+00 0.540D+00
 Gap=     0.501 Goal=   None    Shift=    0.000
 RMSDP=1.56D-07 MaxDP=2.13D-06 DE=-1.07D-10 OVMax= 2.44D-06

 Cycle  10  Pass 1  IDiag  1:
 E= -76.4148292070267     Delta-E=       -0.000000000073 Rises=F Damp=F
 DIIS: error= 2.19D-07 at cycle   4 NSaved=   4.
 NSaved= 4 IEnMin= 4 EnMin= -76.4148292070267     IErMin= 4 ErrMin= 2.19D-07
 ErrMax= 2.19D-07  0.00D+00 EMaxC= 1.00D-01 BMatC= 1.34D-12 BMatP= 1.16D-10
 IDIUse=1 WtCom= 1.00D+00 WtEn= 0.00D+00
 Coeff-Com: -0.346D-02-0.379D-01 0.878D-02 0.103D+01
 Coeff:     -0.346D-02-0.379D-01 0.878D-02 0.103D+01
 Gap=     0.501 Goal=   None    Shift=    0.000
 RMSDP=8.59D-08 MaxDP=8.90D-07 DE=-7.34D-11 OVMax= 1.73D-06

 Cycle  11  Pass 1  IDiag  1:
 E= -76.4148292070311     Delta-E=       -0.000000000004 Rises=F Damp=F
 DIIS: error= 6.17D-08 at cycle   5 NSaved=   5.
 NSaved= 5 IEnMin= 5 EnMin= -76.4148292070311     IErMin= 5 ErrMin= 6.17D-08
 ErrMax= 6.17D-08  0.00D+00 EMaxC= 1.00D-01 BMatC= 1.23D-13 BMatP= 1.34D-12
 IDIUse=1 WtCom= 1.00D+00 WtEn= 0.00D+00
 Coeff-Com:  0.319D-02-0.298D-01-0.501D-01-0.115D+00 0.119D+01
 Coeff:      0.319D-02-0.298D-01-0.501D-01-0.115D+00 0.119D+01
 Gap=     0.501 Goal=   None    Shift=    0.000
 RMSDP=3.39D-08 MaxDP=3.22D-07 DE=-4.38D-12 OVMax= 6.82D-07

 Cycle  12  Pass 1  IDiag  1:
 E= -76.4148292070315     Delta-E=       -0.000000000000 Rises=F Damp=F
 DIIS: error= 8.69D-09 at cycle   6 NSaved=   6.
 NSaved= 6 IEnMin= 6 EnMin= -76.4148292070315     IErMin= 6 ErrMin= 8.69D-09
 ErrMax= 8.69D-09  0.00D+00 EMaxC= 1.00D-01 BMatC= 2.52D-15 BMatP= 1.23D-13
 IDIUse=1 WtCom= 1.00D+00 WtEn= 0.00D+00
 Coeff-Com:  0.255D-03 0.103D-02-0.307D-02-0.526D-01 0.873D-01 0.967D+00
 Coeff:      0.255D-03 0.103D-02-0.307D-02-0.526D-01 0.873D-01 0.967D+00
 Gap=     0.501 Goal=   None    Shift=    0.000
 RMSDP=3.53D-09 MaxDP=3.86D-08 DE=-3.84D-13 OVMax= 6.56D-08

 SCF Done:  E(RwB97XD) =  -76.4148292070     A.U. after   12 cycles
            NFock= 12  Conv=0.35D-08     -V/T= 2.0016
 KE= 7.629223057736D+01 PE=-1.995278281716D+02 EE= 3.764355449847D+01
 Leave Link  502 at Wed Feb  8 14:42:24 2023, MaxMem=   754974720 cpu:              10.2 elap:               5.1
 (Enter /opt/cluster/programs/g16-c.01/g16/l601.exe)
 Copying SCF densities to generalized density rwf, IOpCl= 0 IROHF=0.

 **********************************************************************

            Population analysis using the SCF Density.

 **********************************************************************

 Orbital symmetries:
       Occupied  (A') (A') (A') (A') (A")
       Virtual   (A') (A') (A') (A') (A') (A") (A') (A') (A") (A')
                 (A") (A') (A') (A') (A') (A') (A") (A") (A') (A')
                 (A') (A") (A') (A') (A')
 The electronic state is 1-A'.
 Alpha  occ. eigenvalues --  -19.21871  -1.09547  -0.62895  -0.43937  -0.38279
 Alpha virt. eigenvalues --    0.11856   0.19328   0.45334   0.51172   0.85029
 Alpha virt. eigenvalues --    0.85664   0.94639   1.15138   1.32081   1.49880
 Alpha virt. eigenvalues --    1.60628   1.66550   2.04800   2.12979   2.46046
 Alpha virt. eigenvalues --    2.53572   3.12915   3.30848   3.34382   3.77681
 Alpha virt. eigenvalues --    3.88663   4.88809   5.21159   5.82962  50.00868
          Condensed to atoms (all electrons):
               1          2          3
     1  O    7.871806   0.319867   0.340397
     2  H    0.319867   0.443177  -0.029635
     3  H    0.340397  -0.029635   0.423759
 Mulliken charges:
               1
     1  O   -0.532070
     2  H    0.266590
     3  H    0.265479
 Sum of Mulliken charges =   0.00000
 Mulliken charges with hydrogens summed into heavy atoms:
               1
     1  O    0.000000
 Electronic spatial extent (au):  <R**2>=             19.0130
 Charge=              0.0000 electrons
 Dipole moment (field-independent basis, Debye):
    X=             -0.0736    Y=             -1.9117    Z=             -0.0000  Tot=              1.9131
 Quadrupole moment (field-independent basis, Debye-Ang):
   XX=             -3.7329   YY=             -6.2933   ZZ=             -7.1815
   XY=             -0.3452   XZ=             -0.0000   YZ=              0.0000
 Traceless Quadrupole moment (field-independent basis, Debye-Ang):
   XX=              2.0030   YY=             -0.5574   ZZ=             -1.4456
   XY=             -0.3452   XZ=             -0.0000   YZ=              0.0000
 Octapole moment (field-independent basis, Debye-Ang**2):
  XXX=             -0.1712  YYY=             -1.0867  ZZZ=             -0.0000  XYY=              0.1715
  XXY=             -1.2787  XXZ=             -0.0000  XZZ=             -0.0707  YZZ=             -0.2921
  YYZ=             -0.0000  XYZ=              0.0000
 Hexadecapole moment (field-independent basis, Debye-Ang**3):
 XXXX=             -5.3940 YYYY=             -6.1133 ZZZZ=             -5.2676 XXXY=             -0.0252
 XXXZ=              0.0000 YYYX=              0.0398 YYYZ=              0.0000 ZZZX=              0.0000
 ZZZY=             -0.0000 XXYY=             -1.7295 XXZZ=             -2.1618 YYZZ=             -1.9351
 XXYZ=              0.0000 YYXZ=              0.0000 ZZXY=              0.0796
 N-N= 9.177213888716D+00 E-N=-1.995278281325D+02  KE= 7.629223057736D+01
 Symmetry A'   KE= 7.166783161462D+01
 Symmetry A"   KE= 4.624398962736D+00
 No NMR shielding tensors so no spin-rotation constants.
 Leave Link  601 at Wed Feb  8 14:42:25 2023, MaxMem=   754974720 cpu:               1.4 elap:               0.7
 (Enter /opt/cluster/programs/g16-c.01/g16/l9999.exe)
 Unable to Open any file for archive entry.
 1\1\GINC-NODE63\SP\RwB97XD\6-311G(d,p)\H2O1\BOITTIER\08-Feb-2023\0\\#P
  wB97XD/6-311g** scf(maxcycle=200)\\Gaussian input\\0,1\O,0,0.,0.11751
 ,0.\H,0,0.7973622306,-0.5007896629,0.\H,0,-0.8186734932,-0.2775276078,
 0.\\Version=ES64L-G16RevC.01\State=1-A'\HF=-76.4148292\RMSD=3.535e-09\
 Dipole=-0.0447532,-0.7513467,0.\Quadrupole=1.4775561,-0.4027717,-1.074
 7844,-0.2964533,0.,0.\PG=CS [SG(H2O1)]\\@
 The archive entry for this job was punched.


 A HARD FALL SHOULD MEAN A HIGH BOUNCE 
 IF ONE IS MADE OF THE RIGHT MATERIAL.

                -- THE CHEMIST ANALYST, MARCH 1950
 Job cpu time:       0 days  0 hours  0 minutes 17.2 seconds.
 Elapsed time:       0 days  0 hours  0 minutes  8.5 seconds.
 File lengths (MBytes):  RWF=      6 Int=      0 D2E=      0 Chk=      1 Scr=      1
 Normal termination of Gaussian 16 at Wed Feb  8 14:42:25 2023.
