 Entering Gaussian System, Link 0=/opt/cluster/programs/g16-c.01/g16/g16
 Input=/scratch/boittier/jobs/tmp.7425288/gaussian_25_water_pbe0_dz.com
 Output=/scratch/boittier/jobs/tmp.7425288/gaussian_25_water_pbe0_dz.out
 Initial command:
 /opt/cluster/programs/g16-c.01/g16/l1.exe "/scratch/boittier/jobs/tmp.7425288/Gau-800.inp" -scrdir="/scratch/boittier/jobs/tmp.7425288/"
 Entering Link 1 = /opt/cluster/programs/g16-c.01/g16/l1.exe PID=       803.
  
 Copyright (c) 1988-2019, Gaussian, Inc.  All Rights Reserved.
  
 This is part of the Gaussian(R) 16 program.  It is based on
 the Gaussian(R) 09 system (copyright 2009, Gaussian, Inc.),
 the Gaussian(R) 03 system (copyright 2003, Gaussian, Inc.),
 the Gaussian(R) 98 system (copyright 1998, Gaussian, Inc.),
 the Gaussian(R) 94 system (copyright 1995, Gaussian, Inc.),
 the Gaussian 92(TM) system (copyright 1992, Gaussian, Inc.),
 the Gaussian 90(TM) system (copyright 1990, Gaussian, Inc.),
 the Gaussian 88(TM) system (copyright 1988, Gaussian, Inc.),
 the Gaussian 86(TM) system (copyright 1986, Carnegie Mellon
 University), and the Gaussian 82(TM) system (copyright 1983,
 Carnegie Mellon University). Gaussian is a federally registered
 trademark of Gaussian, Inc.
  
 This software contains proprietary and confidential information,
 including trade secrets, belonging to Gaussian, Inc.
  
 This software is provided under written license and may be
 used, copied, transmitted, or stored only in accord with that
 written license.
  
 The following legend is applicable only to US Government
 contracts under FAR:
  
                    RESTRICTED RIGHTS LEGEND
  
 Use, reproduction and disclosure by the US Government is
 subject to restrictions as set forth in subparagraphs (a)
 and (c) of the Commercial Computer Software - Restricted
 Rights clause in FAR 52.227-19.
  
 Gaussian, Inc.
 340 Quinnipiac St., Bldg. 40, Wallingford CT 06492
  
  
 ---------------------------------------------------------------
 Warning -- This program may not be used in any manner that
 competes with the business of Gaussian, Inc. or will provide
 assistance to any competitor of Gaussian, Inc.  The licensee
 of this program is prohibited from giving any competitor of
 Gaussian, Inc. access to this program.  By using this program,
 the user acknowledges that Gaussian, Inc. is engaged in the
 business of creating and licensing software in the field of
 computational chemistry and represents and warrants to the
 licensee that it is not a competitor of Gaussian, Inc. and that
 it will not use this program in any manner prohibited above.
 ---------------------------------------------------------------
  

 Cite this work as:
 Gaussian 16, Revision C.01,
 M. J. Frisch, G. W. Trucks, H. B. Schlegel, G. E. Scuseria, 
 M. A. Robb, J. R. Cheeseman, G. Scalmani, V. Barone, 
 G. A. Petersson, H. Nakatsuji, X. Li, M. Caricato, A. V. Marenich, 
 J. Bloino, B. G. Janesko, R. Gomperts, B. Mennucci, H. P. Hratchian, 
 J. V. Ortiz, A. F. Izmaylov, J. L. Sonnenberg, D. Williams-Young, 
 F. Ding, F. Lipparini, F. Egidi, J. Goings, B. Peng, A. Petrone, 
 T. Henderson, D. Ranasinghe, V. G. Zakrzewski, J. Gao, N. Rega, 
 G. Zheng, W. Liang, M. Hada, M. Ehara, K. Toyota, R. Fukuda, 
 J. Hasegawa, M. Ishida, T. Nakajima, Y. Honda, O. Kitao, H. Nakai, 
 T. Vreven, K. Throssell, J. A. Montgomery, Jr., J. E. Peralta, 
 F. Ogliaro, M. J. Bearpark, J. J. Heyd, E. N. Brothers, K. N. Kudin, 
 V. N. Staroverov, T. A. Keith, R. Kobayashi, J. Normand, 
 K. Raghavachari, A. P. Rendell, J. C. Burant, S. S. Iyengar, 
 J. Tomasi, M. Cossi, J. M. Millam, M. Klene, C. Adamo, R. Cammi, 
 J. W. Ochterski, R. L. Martin, K. Morokuma, O. Farkas, 
 J. B. Foresman, and D. J. Fox, Gaussian, Inc., Wallingford CT, 2019.
 
 ******************************************
 Gaussian 16:  ES64L-G16RevC.01  3-Jul-2019
                20-Mar-2023 
 ******************************************
 %nproc=4
 Will use up to    4 processors via shared memory.
 %mem=5760MB
 %chk=gaussian_25_water_pbe0_dz.chk
 ----------------------------------------
 #P PBE1PBE/aug-cc-pVDZ scf(maxcycle=200)
 ----------------------------------------
 1/38=1,172=1/1;
 2/12=2,17=6,18=5,40=1/2;
 3/5=16,7=10,11=2,25=1,30=1,74=-13/1,2,3;
 4//1;
 5/5=2,7=200,38=5/2;
 6/7=2,8=2,9=2,10=2,28=1/1;
 99/5=1,9=1/99;
 Leave Link    1 at Mon Mar 20 17:33:15 2023, MaxMem=   754974720 cpu:               0.1 elap:               0.0
 (Enter /opt/cluster/programs/g16-c.01/g16/l101.exe)
 --------------
 Gaussian input
 --------------
 Symbolic Z-matrix:
 Charge =  0 Multiplicity = 1
 O                     0.        0.11751   0. 
 H                     0.71834  -0.43951   0. 
 H                    -0.64469  -0.59246   0. 
 
 ITRead=  0  0  0
 MicOpt= -1 -1 -1
 NAtoms=      3 NQM=        3 NQMF=       0 NMMI=      0 NMMIF=      0
                NMic=       0 NMicF=      0.
                    Isotopes and Nuclear Properties:
 (Nuclear quadrupole moments (NQMom) in fm**2, nuclear magnetic moments (NMagM)
  in nuclear magnetons)

  Atom         1           2           3
 IAtWgt=          16           1           1
 AtmWgt=  15.9949146   1.0078250   1.0078250
 NucSpn=           0           1           1
 AtZEff=  -0.0000000  -0.0000000  -0.0000000
 NQMom=    0.0000000   0.0000000   0.0000000
 NMagM=    0.0000000   2.7928460   2.7928460
 AtZNuc=   8.0000000   1.0000000   1.0000000
 Leave Link  101 at Mon Mar 20 17:33:15 2023, MaxMem=   754974720 cpu:               0.5 elap:               0.2
 (Enter /opt/cluster/programs/g16-c.01/g16/l202.exe)
                          Input orientation:                          
 ---------------------------------------------------------------------
 Center     Atomic      Atomic             Coordinates (Angstroms)
 Number     Number       Type             X           Y           Z
 ---------------------------------------------------------------------
      1          8           0        0.000000    0.117510    0.000000
      2          1           0        0.718337   -0.439511    0.000000
      3          1           0       -0.644690   -0.592459    0.000000
 ---------------------------------------------------------------------
                    Distance matrix (angstroms):
                    1          2          3
     1  O    0.000000
     2  H    0.909000   0.000000
     3  H    0.959000   1.371581   0.000000
 Stoichiometry    H2O
 Framework group  CS[SG(H2O)]
 Deg. of freedom     3
 Full point group                 CS      NOp   2
 Largest Abelian subgroup         CS      NOp   2
 Largest concise Abelian subgroup C1      NOp   1
                         Standard orientation:                         
 ---------------------------------------------------------------------
 Center     Atomic      Atomic             Coordinates (Angstroms)
 Number     Number       Type             X           Y           Z
 ---------------------------------------------------------------------
      1          8           0        0.000000    0.126913    0.000000
      2          1           0        0.684803   -0.470855    0.000000
      3          1           0       -0.684803   -0.544448    0.000000
 ---------------------------------------------------------------------
 Rotational constants (GHZ):         709.3456877         528.4561861         302.8417751
 Leave Link  202 at Mon Mar 20 17:33:15 2023, MaxMem=   754974720 cpu:               0.1 elap:               0.0
 (Enter /opt/cluster/programs/g16-c.01/g16/l301.exe)
 Standard basis: Aug-CC-pVDZ (5D, 7F)
 Ernie: Thresh=  0.10000D-02 Tol=  0.10000D-05 Strict=F.
 Ernie:  2 primitive shells out of 39 were deleted.
 There are    32 symmetry adapted cartesian basis functions of A'  symmetry.
 There are    11 symmetry adapted cartesian basis functions of A"  symmetry.
 There are    30 symmetry adapted basis functions of A'  symmetry.
 There are    11 symmetry adapted basis functions of A"  symmetry.
    41 basis functions,    65 primitive gaussians,    43 cartesian basis functions
     5 alpha electrons        5 beta electrons
       nuclear repulsion energy         9.4574489906 Hartrees.
 IExCor= 1009 DFT=T Ex+Corr=PBE1PBE ExCW=0 ScaHFX=  0.250000
 ScaDFX=  0.750000  0.750000  1.000000  1.000000 ScalE2=  1.000000  1.000000
 IRadAn=      5 IRanWt=     -1 IRanGd=            0 ICorTp=0 IEmpDi=  4
 NAtoms=    3 NActive=    3 NUniq=    3 SFac= 1.00D+00 NAtFMM=   60 NAOKFM=F Big=F
 Integral buffers will be    131072 words long.
 Raffenetti 2 integral format.
 Two-electron integral symmetry is turned on.
 Leave Link  301 at Mon Mar 20 17:33:15 2023, MaxMem=   754974720 cpu:               0.1 elap:               0.0
 (Enter /opt/cluster/programs/g16-c.01/g16/l302.exe)
 NPDir=0 NMtPBC=     1 NCelOv=     1 NCel=       1 NClECP=     1 NCelD=      1
         NCelK=      1 NCelE2=     1 NClLst=     1 CellRange=     0.0.
 One-electron integrals computed using PRISM.
 One-electron integral symmetry used in STVInt
 NBasis=    41 RedAO= T EigKep=  1.94D-03  NBF=    30    11
 NBsUse=    41 1.00D-06 EigRej= -1.00D+00 NBFU=    30    11
 Precomputing XC quadrature grid using
 IXCGrd= 4 IRadAn=           5 IRanWt=          -1 IRanGd=           0 AccXCQ= 0.00D+00.
 Generated NRdTot=       0 NPtTot=           0 NUsed=           0 NTot=          32
 NSgBfM=    43    43    43    43    43 MxSgAt=     3 MxSgA2=     3.
 Leave Link  302 at Mon Mar 20 17:33:16 2023, MaxMem=   754974720 cpu:               1.4 elap:               0.5
 (Enter /opt/cluster/programs/g16-c.01/g16/l303.exe)
 DipDrv:  MaxL=1.
 Leave Link  303 at Mon Mar 20 17:33:16 2023, MaxMem=   754974720 cpu:               0.3 elap:               0.1
 (Enter /opt/cluster/programs/g16-c.01/g16/l401.exe)
 ExpMin= 2.97D-02 ExpMax= 1.17D+04 ExpMxC= 4.01D+02 IAcc=3 IRadAn=         5 AccDes= 0.00D+00
 Harris functional with IExCor= 1009 and IRadAn=       5 diagonalized for initial guess.
 HarFok:  IExCor= 1009 AccDes= 0.00D+00 IRadAn=         5 IDoV= 1 UseB2=F ITyADJ=14
 ICtDFT=  3500011 ScaDFX=  1.000000  1.000000  1.000000  1.000000
 FoFCou: FMM=F IPFlag=           0 FMFlag=      100000 FMFlg1=           0
         NFxFlg=           0 DoJE=T BraDBF=F KetDBF=T FulRan=T
         wScrn=  0.000000 ICntrl=       500 IOpCl=  0 I1Cent=   200000004 NGrid=           0
         NMat0=    1 NMatS0=      1 NMatT0=    0 NMatD0=    1 NMtDS0=    0 NMtDT0=    0
 Petite list used in FoFCou.
 Harris En= -76.3937564622952    
 JPrj=0 DoOrth=F DoCkMO=F.
 Initial guess orbital symmetries:
       Occupied  (A') (A') (A') (A') (A")
       Virtual   (A') (A') (A') (A") (A') (A') (A') (A') (A') (A")
                 (A") (A') (A') (A') (A') (A') (A") (A') (A") (A')
                 (A") (A') (A') (A") (A') (A") (A') (A') (A') (A')
                 (A') (A") (A') (A") (A') (A')
 The electronic state of the initial guess is 1-A'.
 Leave Link  401 at Mon Mar 20 17:33:16 2023, MaxMem=   754974720 cpu:               0.8 elap:               0.2
 (Enter /opt/cluster/programs/g16-c.01/g16/l502.exe)
 Keep R1 ints in memory in symmetry-blocked form, NReq=3831793.
 FoFCou: FMM=F IPFlag=           0 FMFlag=           0 FMFlg1=           0
         NFxFlg=           0 DoJE=F BraDBF=F KetDBF=F FulRan=T
         wScrn=  0.000000 ICntrl=       600 IOpCl=  0 I1Cent=           0 NGrid=           0
         NMat0=    1 NMatS0=    861 NMatT0=    0 NMatD0=    1 NMtDS0=    0 NMtDT0=    0
 Petite list used in FoFCou.
 Closed shell SCF:
 Using DIIS extrapolation, IDIIS=  1040.
 NGot=   754974720 LenX=   754771907 LenY=   754769617
 Requested convergence on RMS density matrix=1.00D-08 within 200 cycles.
 Requested convergence on MAX density matrix=1.00D-06.
 Requested convergence on             energy=1.00D-06.
 No special actions if energy rises.

 Cycle   1  Pass 1  IDiag  1:
 E= -76.2838294277307    
 DIIS: error= 5.38D-02 at cycle   1 NSaved=   1.
 NSaved= 1 IEnMin= 1 EnMin= -76.2838294277307     IErMin= 1 ErrMin= 5.38D-02
 ErrMax= 5.38D-02  0.00D+00 EMaxC= 1.00D-01 BMatC= 9.20D-02 BMatP= 9.20D-02
 IDIUse=3 WtCom= 4.62D-01 WtEn= 5.38D-01
 Coeff-Com:  0.100D+01
 Coeff-En:   0.100D+01
 Coeff:      0.100D+01
 Gap=     0.177 Goal=   None    Shift=    0.000
 GapD=    0.177 DampG=1.000 DampE=0.500 DampFc=0.5000 IDamp=-1.
 Damping current iteration by 5.00D-01
 RMSDP=1.02D-02 MaxDP=1.65D-01              OVMax= 2.04D-01

 Cycle   2  Pass 1  IDiag  1:
 E= -76.3024849380290     Delta-E=       -0.018655510298 Rises=F Damp=T
 DIIS: error= 1.69D-02 at cycle   2 NSaved=   2.
 NSaved= 2 IEnMin= 2 EnMin= -76.3024849380290     IErMin= 2 ErrMin= 1.69D-02
 ErrMax= 1.69D-02  0.00D+00 EMaxC= 1.00D-01 BMatC= 7.70D-03 BMatP= 9.20D-02
 IDIUse=3 WtCom= 8.31D-01 WtEn= 1.69D-01
 Coeff-Com:  0.213D+00 0.787D+00
 Coeff-En:   0.362D+00 0.638D+00
 Coeff:      0.238D+00 0.762D+00
 Gap=     0.315 Goal=   None    Shift=    0.000
 RMSDP=1.23D-03 MaxDP=1.51D-02 DE=-1.87D-02 OVMax= 1.28D-01

 Cycle   3  Pass 1  IDiag  1:
 E= -76.3535827292476     Delta-E=       -0.051097791219 Rises=F Damp=F
 DIIS: error= 1.20D-03 at cycle   3 NSaved=   3.
 NSaved= 3 IEnMin= 3 EnMin= -76.3535827292476     IErMin= 3 ErrMin= 1.20D-03
 ErrMax= 1.20D-03  0.00D+00 EMaxC= 1.00D-01 BMatC= 5.23D-05 BMatP= 7.70D-03
 IDIUse=3 WtCom= 9.88D-01 WtEn= 1.20D-02
 Coeff-Com:  0.114D-01-0.426D-01 0.103D+01
 Coeff-En:   0.000D+00 0.000D+00 0.100D+01
 Coeff:      0.112D-01-0.421D-01 0.103D+01
 Gap=     0.325 Goal=   None    Shift=    0.000
 RMSDP=1.32D-04 MaxDP=1.61D-03 DE=-5.11D-02 OVMax= 1.38D-03

 Cycle   4  Pass 1  IDiag  1:
 E= -76.3536141943934     Delta-E=       -0.000031465146 Rises=F Damp=F
 DIIS: error= 2.82D-04 at cycle   4 NSaved=   4.
 NSaved= 4 IEnMin= 4 EnMin= -76.3536141943934     IErMin= 4 ErrMin= 2.82D-04
 ErrMax= 2.82D-04  0.00D+00 EMaxC= 1.00D-01 BMatC= 2.53D-06 BMatP= 5.23D-05
 IDIUse=3 WtCom= 9.97D-01 WtEn= 2.82D-03
 Coeff-Com:  0.409D-02-0.136D-01 0.173D+00 0.836D+00
 Coeff-En:   0.000D+00 0.000D+00 0.000D+00 0.100D+01
 Coeff:      0.408D-02-0.135D-01 0.173D+00 0.837D+00
 Gap=     0.325 Goal=   None    Shift=    0.000
 RMSDP=1.82D-05 MaxDP=3.14D-04 DE=-3.15D-05 OVMax= 4.15D-04

 Cycle   5  Pass 1  IDiag  1:
 E= -76.3536159550079     Delta-E=       -0.000001760614 Rises=F Damp=F
 DIIS: error= 6.57D-05 at cycle   5 NSaved=   5.
 NSaved= 5 IEnMin= 5 EnMin= -76.3536159550079     IErMin= 5 ErrMin= 6.57D-05
 ErrMax= 6.57D-05  0.00D+00 EMaxC= 1.00D-01 BMatC= 1.17D-07 BMatP= 2.53D-06
 IDIUse=1 WtCom= 1.00D+00 WtEn= 0.00D+00
 Coeff-Com:  0.116D-02-0.184D-02 0.364D-02 0.144D+00 0.853D+00
 Coeff:      0.116D-02-0.184D-02 0.364D-02 0.144D+00 0.853D+00
 Gap=     0.326 Goal=   None    Shift=    0.000
 RMSDP=4.92D-06 MaxDP=6.54D-05 DE=-1.76D-06 OVMax= 9.27D-05

 Cycle   6  Pass 1  IDiag  1:
 E= -76.3536160462057     Delta-E=       -0.000000091198 Rises=F Damp=F
 DIIS: error= 4.56D-06 at cycle   6 NSaved=   6.
 NSaved= 6 IEnMin= 6 EnMin= -76.3536160462057     IErMin= 6 ErrMin= 4.56D-06
 ErrMax= 4.56D-06  0.00D+00 EMaxC= 1.00D-01 BMatC= 4.56D-10 BMatP= 1.17D-07
 IDIUse=1 WtCom= 1.00D+00 WtEn= 0.00D+00
 Coeff-Com:  0.204D-04-0.445D-04-0.202D-03-0.713D-02 0.714D-02 0.100D+01
 Coeff:      0.204D-04-0.445D-04-0.202D-03-0.713D-02 0.714D-02 0.100D+01
 Gap=     0.326 Goal=   None    Shift=    0.000
 RMSDP=4.41D-07 MaxDP=6.19D-06 DE=-9.12D-08 OVMax= 8.44D-06

 Cycle   7  Pass 1  IDiag  1:
 E= -76.3536160465880     Delta-E=       -0.000000000382 Rises=F Damp=F
 DIIS: error= 5.15D-07 at cycle   7 NSaved=   7.
 NSaved= 7 IEnMin= 7 EnMin= -76.3536160465880     IErMin= 7 ErrMin= 5.15D-07
 ErrMax= 5.15D-07  0.00D+00 EMaxC= 1.00D-01 BMatC= 1.12D-11 BMatP= 4.56D-10
 IDIUse=1 WtCom= 1.00D+00 WtEn= 0.00D+00
 Coeff-Com: -0.314D-04 0.465D-04-0.209D-03-0.662D-02-0.249D-01 0.274D+00
 Coeff-Com:  0.758D+00
 Coeff:     -0.314D-04 0.465D-04-0.209D-03-0.662D-02-0.249D-01 0.274D+00
 Coeff:      0.758D+00
 Gap=     0.326 Goal=   None    Shift=    0.000
 RMSDP=6.49D-08 MaxDP=7.05D-07 DE=-3.82D-10 OVMax= 1.22D-06

 Cycle   8  Pass 1  IDiag  1:
 E= -76.3536160465975     Delta-E=       -0.000000000010 Rises=F Damp=F
 DIIS: error= 8.86D-08 at cycle   8 NSaved=   8.
 NSaved= 8 IEnMin= 8 EnMin= -76.3536160465975     IErMin= 8 ErrMin= 8.86D-08
 ErrMax= 8.86D-08  0.00D+00 EMaxC= 1.00D-01 BMatC= 2.91D-13 BMatP= 1.12D-11
 IDIUse=1 WtCom= 1.00D+00 WtEn= 0.00D+00
 Coeff-Com: -0.328D-06 0.901D-06-0.478D-05 0.448D-03 0.929D-03-0.267D-01
 Coeff-Com: -0.386D-01 0.106D+01
 Coeff:     -0.328D-06 0.901D-06-0.478D-05 0.448D-03 0.929D-03-0.267D-01
 Coeff:     -0.386D-01 0.106D+01
 Gap=     0.326 Goal=   None    Shift=    0.000
 RMSDP=8.82D-09 MaxDP=1.75D-07 DE=-9.51D-12 OVMax= 2.82D-07

 SCF Done:  E(RPBE1PBE) =  -76.3536160466     A.U. after    8 cycles
            NFock=  8  Conv=0.88D-08     -V/T= 2.0038
 KE= 7.606507603019D+01 PE=-1.994547770933D+02 EE= 3.757863602595D+01
 Leave Link  502 at Mon Mar 20 17:33:17 2023, MaxMem=   754974720 cpu:               3.8 elap:               1.3
 (Enter /opt/cluster/programs/g16-c.01/g16/l601.exe)
 Copying SCF densities to generalized density rwf, IOpCl= 0 IROHF=0.

 **********************************************************************

            Population analysis using the SCF Density.

 **********************************************************************

 Orbital symmetries:
       Occupied  (A') (A') (A') (A') (A")
       Virtual   (A') (A') (A') (A") (A') (A') (A') (A') (A') (A")
                 (A") (A') (A') (A') (A') (A') (A") (A') (A") (A')
                 (A") (A') (A') (A") (A') (A") (A') (A') (A') (A')
                 (A') (A") (A') (A") (A') (A')
 The electronic state is 1-A'.
 Alpha  occ. eigenvalues --  -19.22998  -1.06841  -0.54139  -0.43286  -0.33728
 Alpha virt. eigenvalues --   -0.01172   0.03473   0.11129   0.13210   0.14831
 Alpha virt. eigenvalues --    0.17242   0.18993   0.25700   0.29160   0.29927
 Alpha virt. eigenvalues --    0.32431   0.46738   0.51888   0.55219   0.62479
 Alpha virt. eigenvalues --    0.78594   0.92336   0.93999   0.96821   1.06160
 Alpha virt. eigenvalues --    1.21163   1.22886   1.36250   1.76244   1.79094
 Alpha virt. eigenvalues --    1.90356   2.00125   2.23005   2.38396   2.43415
 Alpha virt. eigenvalues --    2.73331   3.31071   3.33115   3.33618   3.63785
 Alpha virt. eigenvalues --    3.98073
          Condensed to atoms (all electrons):
               1          2          3
     1  O    7.505344   0.333387   0.321108
     2  H    0.333387   0.679943  -0.069855
     3  H    0.321108  -0.069855   0.645434
 Mulliken charges:
               1
     1  O   -0.159839
     2  H    0.056526
     3  H    0.103313
 Sum of Mulliken charges =  -0.00000
 Mulliken charges with hydrogens summed into heavy atoms:
               1
     1  O   -0.000000
 Electronic spatial extent (au):  <R**2>=             19.5719
 Charge=             -0.0000 electrons
 Dipole moment (field-independent basis, Debye):
    X=              0.0292    Y=             -1.9928    Z=              0.0000  Tot=              1.9930
 Quadrupole moment (field-independent basis, Debye-Ang):
   XX=             -4.9253   YY=             -6.1218   ZZ=             -7.6653
   XY=              0.1032   XZ=              0.0000   YZ=              0.0000
 Traceless Quadrupole moment (field-independent basis, Debye-Ang):
   XX=              1.3122   YY=              0.1156   ZZ=             -1.4278
   XY=              0.1032   XZ=              0.0000   YZ=              0.0000
 Octapole moment (field-independent basis, Debye-Ang**2):
  XXX=              0.0786  YYY=             -1.2130  ZZZ=              0.0000  XYY=             -0.0735
  XXY=             -1.1597  XXZ=              0.0000  XZZ=              0.0298  YZZ=             -0.2729
  YYZ=              0.0000  XYZ=              0.0000
 Hexadecapole moment (field-independent basis, Debye-Ang**3):
 XXXX=             -6.6409 YYYY=             -7.8076 ZZZZ=             -7.4532 XXXY=             -0.0258
 XXXZ=              0.0000 YYYX=              0.0005 YYYZ=              0.0000 ZZZX=              0.0000
 ZZZY=              0.0000 XXYY=             -2.0600 XXZZ=             -2.5588 YYZZ=             -2.6079
 XXYZ=              0.0000 YYXZ=              0.0000 ZZXY=             -0.0321
 N-N= 9.457448990571D+00 E-N=-1.994547737757D+02  KE= 7.606507603019D+01
 Symmetry A'   KE= 7.161773208915D+01
 Symmetry A"   KE= 4.447343941045D+00
 No NMR shielding tensors so no spin-rotation constants.
 Leave Link  601 at Mon Mar 20 17:33:18 2023, MaxMem=   754974720 cpu:               0.8 elap:               0.4
 (Enter /opt/cluster/programs/g16-c.01/g16/l9999.exe)
 Unable to Open any file for archive entry.
 1\1\GINC-NODE59\SP\RPBE1PBE\Aug-CC-pVDZ\H2O1\BOITTIER\20-Mar-2023\0\\#
 P PBE1PBE/aug-cc-pVDZ scf(maxcycle=200)\\Gaussian input\\0,1\O,0,0.,0.
 11751,0.\H,0,0.7183372325,-0.4395112028,0.\H,0,-0.6446897571,-0.592459
 0958,0.\\Version=ES64L-G16RevC.01\State=1-A'\HF=-76.353616\RMSD=8.822e
 -09\Dipole=0.0569583,-0.7820341,0.\Quadrupole=0.9636919,0.0978554,-1.0
 615473,0.1277262,0.,0.\PG=CS [SG(H2O1)]\\@
 The archive entry for this job was punched.


 THE REAL VOYAGE OF DISCOVERY CONSISTS NOT IN SEEKING NEW LANDSCAPES 
 BUT IN HAVING NEW EYES.
                                                    -- MARCEL PROUST
 Job cpu time:       0 days  0 hours  0 minutes  8.1 seconds.
 Elapsed time:       0 days  0 hours  0 minutes  2.8 seconds.
 File lengths (MBytes):  RWF=      6 Int=      0 D2E=      0 Chk=      1 Scr=      1
 Normal termination of Gaussian 16 at Mon Mar 20 17:33:18 2023.
