 Entering Gaussian System, Link 0=/opt/cluster/programs/g16-c.01/g16/g16
 Input=/scratch/boittier/jobs/tmp.7311892/gaussian_64_water_hf_adz2.com
 Output=/scratch/boittier/jobs/tmp.7311892/gaussian_64_water_hf_adz2.out
 Initial command:
 /opt/cluster/programs/g16-c.01/g16/l1.exe "/scratch/boittier/jobs/tmp.7311892/Gau-180699.inp" -scrdir="/scratch/boittier/jobs/tmp.7311892/"
 Entering Link 1 = /opt/cluster/programs/g16-c.01/g16/l1.exe PID=    180700.
  
 Copyright (c) 1988-2019, Gaussian, Inc.  All Rights Reserved.
  
 This is part of the Gaussian(R) 16 program.  It is based on
 the Gaussian(R) 09 system (copyright 2009, Gaussian, Inc.),
 the Gaussian(R) 03 system (copyright 2003, Gaussian, Inc.),
 the Gaussian(R) 98 system (copyright 1998, Gaussian, Inc.),
 the Gaussian(R) 94 system (copyright 1995, Gaussian, Inc.),
 the Gaussian 92(TM) system (copyright 1992, Gaussian, Inc.),
 the Gaussian 90(TM) system (copyright 1990, Gaussian, Inc.),
 the Gaussian 88(TM) system (copyright 1988, Gaussian, Inc.),
 the Gaussian 86(TM) system (copyright 1986, Carnegie Mellon
 University), and the Gaussian 82(TM) system (copyright 1983,
 Carnegie Mellon University). Gaussian is a federally registered
 trademark of Gaussian, Inc.
  
 This software contains proprietary and confidential information,
 including trade secrets, belonging to Gaussian, Inc.
  
 This software is provided under written license and may be
 used, copied, transmitted, or stored only in accord with that
 written license.
  
 The following legend is applicable only to US Government
 contracts under FAR:
  
                    RESTRICTED RIGHTS LEGEND
  
 Use, reproduction and disclosure by the US Government is
 subject to restrictions as set forth in subparagraphs (a)
 and (c) of the Commercial Computer Software - Restricted
 Rights clause in FAR 52.227-19.
  
 Gaussian, Inc.
 340 Quinnipiac St., Bldg. 40, Wallingford CT 06492
  
  
 ---------------------------------------------------------------
 Warning -- This program may not be used in any manner that
 competes with the business of Gaussian, Inc. or will provide
 assistance to any competitor of Gaussian, Inc.  The licensee
 of this program is prohibited from giving any competitor of
 Gaussian, Inc. access to this program.  By using this program,
 the user acknowledges that Gaussian, Inc. is engaged in the
 business of creating and licensing software in the field of
 computational chemistry and represents and warrants to the
 licensee that it is not a competitor of Gaussian, Inc. and that
 it will not use this program in any manner prohibited above.
 ---------------------------------------------------------------
  

 Cite this work as:
 Gaussian 16, Revision C.01,
 M. J. Frisch, G. W. Trucks, H. B. Schlegel, G. E. Scuseria, 
 M. A. Robb, J. R. Cheeseman, G. Scalmani, V. Barone, 
 G. A. Petersson, H. Nakatsuji, X. Li, M. Caricato, A. V. Marenich, 
 J. Bloino, B. G. Janesko, R. Gomperts, B. Mennucci, H. P. Hratchian, 
 J. V. Ortiz, A. F. Izmaylov, J. L. Sonnenberg, D. Williams-Young, 
 F. Ding, F. Lipparini, F. Egidi, J. Goings, B. Peng, A. Petrone, 
 T. Henderson, D. Ranasinghe, V. G. Zakrzewski, J. Gao, N. Rega, 
 G. Zheng, W. Liang, M. Hada, M. Ehara, K. Toyota, R. Fukuda, 
 J. Hasegawa, M. Ishida, T. Nakajima, Y. Honda, O. Kitao, H. Nakai, 
 T. Vreven, K. Throssell, J. A. Montgomery, Jr., J. E. Peralta, 
 F. Ogliaro, M. J. Bearpark, J. J. Heyd, E. N. Brothers, K. N. Kudin, 
 V. N. Staroverov, T. A. Keith, R. Kobayashi, J. Normand, 
 K. Raghavachari, A. P. Rendell, J. C. Burant, S. S. Iyengar, 
 J. Tomasi, M. Cossi, J. M. Millam, M. Klene, C. Adamo, R. Cammi, 
 J. W. Ochterski, R. L. Martin, K. Morokuma, O. Farkas, 
 J. B. Foresman, and D. J. Fox, Gaussian, Inc., Wallingford CT, 2019.
 
 ******************************************
 Gaussian 16:  ES64L-G16RevC.01  3-Jul-2019
                20-Feb-2023 
 ******************************************
 %nproc=4
 Will use up to    4 processors via shared memory.
 %mem=5760MB
 %chk=gaussian_64_water_hf_adz2.chk
 -----------------------------------
 #P HF/aug-cc-pVDZ scf(maxcycle=200)
 -----------------------------------
 1/38=1,172=1/1;
 2/12=2,17=6,18=5,40=1/2;
 3/5=16,7=10,11=9,25=1,30=1/1,2,3;
 4//1;
 5/5=2,7=200,38=5/2;
 6/7=2,8=2,9=2,10=2,28=1/1;
 99/5=1,9=1/99;
 Leave Link    1 at Mon Feb 20 10:15:35 2023, MaxMem=   754974720 cpu:               0.1 elap:               0.0
 (Enter /opt/cluster/programs/g16-c.01/g16/l101.exe)
 --------------
 Gaussian input
 --------------
 Symbolic Z-matrix:
 Charge =  0 Multiplicity = 1
 O                     0.        0.11751   0. 
 H                     0.75785  -0.47015   0. 
 H                    -0.58722  -0.57636   0. 
 
 ITRead=  0  0  0
 MicOpt= -1 -1 -1
 NAtoms=      3 NQM=        3 NQMF=       0 NMMI=      0 NMMIF=      0
                NMic=       0 NMicF=      0.
                    Isotopes and Nuclear Properties:
 (Nuclear quadrupole moments (NQMom) in fm**2, nuclear magnetic moments (NMagM)
  in nuclear magnetons)

  Atom         1           2           3
 IAtWgt=          16           1           1
 AtmWgt=  15.9949146   1.0078250   1.0078250
 NucSpn=           0           1           1
 AtZEff=  -0.0000000  -0.0000000  -0.0000000
 NQMom=    0.0000000   0.0000000   0.0000000
 NMagM=    0.0000000   2.7928460   2.7928460
 AtZNuc=   8.0000000   1.0000000   1.0000000
 Leave Link  101 at Mon Feb 20 10:15:36 2023, MaxMem=   754974720 cpu:               0.4 elap:               0.2
 (Enter /opt/cluster/programs/g16-c.01/g16/l202.exe)
                          Input orientation:                          
 ---------------------------------------------------------------------
 Center     Atomic      Atomic             Coordinates (Angstroms)
 Number     Number       Type             X           Y           Z
 ---------------------------------------------------------------------
      1          8           0        0.000000    0.117510    0.000000
      2          1           0        0.757850   -0.470150    0.000000
      3          1           0       -0.587219   -0.576359    0.000000
 ---------------------------------------------------------------------
                    Distance matrix (angstroms):
                    1          2          3
     1  O    0.000000
     2  H    0.959000   0.000000
     3  H    0.909000   1.349256   0.000000
 Stoichiometry    H2O
 Framework group  CS[SG(H2O)]
 Deg. of freedom     3
 Full point group                 CS      NOp   2
 Largest Abelian subgroup         CS      NOp   2
 Largest concise Abelian subgroup C1      NOp   1
                         Standard orientation:                         
 ---------------------------------------------------------------------
 Center     Atomic      Atomic             Coordinates (Angstroms)
 Number     Number       Type             X           Y           Z
 ---------------------------------------------------------------------
      1          8           0        0.000000    0.129284   -0.000000
      2          1           0        0.673660   -0.553258    0.000000
      3          1           0       -0.673660   -0.481014    0.000000
 ---------------------------------------------------------------------
 Rotational constants (GHZ):         685.6470867         544.4252202         303.4647346
 Leave Link  202 at Mon Feb 20 10:15:36 2023, MaxMem=   754974720 cpu:               0.3 elap:               0.1
 (Enter /opt/cluster/programs/g16-c.01/g16/l301.exe)
 Standard basis: Aug-CC-pVDZ (5D, 7F)
 Ernie: Thresh=  0.10000D-02 Tol=  0.10000D-05 Strict=F.
 Ernie:  2 primitive shells out of 39 were deleted.
 There are    32 symmetry adapted cartesian basis functions of A'  symmetry.
 There are    11 symmetry adapted cartesian basis functions of A"  symmetry.
 There are    30 symmetry adapted basis functions of A'  symmetry.
 There are    11 symmetry adapted basis functions of A"  symmetry.
    41 basis functions,    65 primitive gaussians,    43 cartesian basis functions
     5 alpha electrons        5 beta electrons
       nuclear repulsion energy         9.4638329891 Hartrees.
 IExCor=    0 DFT=F Ex=HF Corr=None ExCW=0 ScaHFX=  1.000000
 ScaDFX=  1.000000  1.000000  1.000000  1.000000 ScalE2=  1.000000  1.000000
 IRadAn=      5 IRanWt=     -1 IRanGd=            0 ICorTp=0 IEmpDi=  4
 NAtoms=    3 NActive=    3 NUniq=    3 SFac= 1.00D+00 NAtFMM=   60 NAOKFM=F Big=F
 Integral buffers will be    131072 words long.
 Raffenetti 1 integral format.
 Two-electron integral symmetry is turned on.
 Leave Link  301 at Mon Feb 20 10:15:36 2023, MaxMem=   754974720 cpu:               0.1 elap:               0.0
 (Enter /opt/cluster/programs/g16-c.01/g16/l302.exe)
 NPDir=0 NMtPBC=     1 NCelOv=     1 NCel=       1 NClECP=     1 NCelD=      1
         NCelK=      1 NCelE2=     1 NClLst=     1 CellRange=     0.0.
 One-electron integrals computed using PRISM.
 One-electron integral symmetry used in STVInt
 NBasis=    41 RedAO= T EigKep=  1.84D-03  NBF=    30    11
 NBsUse=    41 1.00D-06 EigRej= -1.00D+00 NBFU=    30    11
 Leave Link  302 at Mon Feb 20 10:15:36 2023, MaxMem=   754974720 cpu:               1.2 elap:               0.6
 (Enter /opt/cluster/programs/g16-c.01/g16/l303.exe)
 DipDrv:  MaxL=1.
 Leave Link  303 at Mon Feb 20 10:15:37 2023, MaxMem=   754974720 cpu:               0.8 elap:               0.4
 (Enter /opt/cluster/programs/g16-c.01/g16/l401.exe)
 ExpMin= 2.97D-02 ExpMax= 1.17D+04 ExpMxC= 4.01D+02 IAcc=3 IRadAn=         5 AccDes= 0.00D+00
 Harris functional with IExCor=  205 and IRadAn=       5 diagonalized for initial guess.
 HarFok:  IExCor=  205 AccDes= 0.00D+00 IRadAn=         5 IDoV= 1 UseB2=F ITyADJ=14
 ICtDFT=  3500011 ScaDFX=  1.000000  1.000000  1.000000  1.000000
 FoFCou: FMM=F IPFlag=           0 FMFlag=      100000 FMFlg1=           0
         NFxFlg=           0 DoJE=T BraDBF=F KetDBF=T FulRan=T
         wScrn=  0.000000 ICntrl=       500 IOpCl=  0 I1Cent=   200000004 NGrid=           0
         NMat0=    1 NMatS0=      1 NMatT0=    0 NMatD0=    1 NMtDS0=    0 NMtDT0=    0
 Petite list used in FoFCou.
 Harris En= -76.1186636290893    
 JPrj=0 DoOrth=F DoCkMO=F.
 Initial guess orbital symmetries:
       Occupied  (A') (A') (A') (A') (A")
       Virtual   (A') (A') (A') (A") (A') (A') (A') (A') (A') (A")
                 (A") (A') (A') (A') (A') (A') (A") (A') (A") (A')
                 (A") (A') (A') (A") (A') (A") (A') (A') (A') (A')
                 (A') (A") (A') (A") (A') (A')
 The electronic state of the initial guess is 1-A'.
 Leave Link  401 at Mon Feb 20 10:15:38 2023, MaxMem=   754974720 cpu:               1.6 elap:               0.8
 (Enter /opt/cluster/programs/g16-c.01/g16/l502.exe)
 Keep R1 ints in memory in symmetry-blocked form, NReq=1210696.
 FoFCou: FMM=F IPFlag=           0 FMFlag=           0 FMFlg1=           0
         NFxFlg=           0 DoJE=F BraDBF=F KetDBF=F FulRan=T
         wScrn=  0.000000 ICntrl=       600 IOpCl=  0 I1Cent=           0 NGrid=           0
         NMat0=    1 NMatS0=    861 NMatT0=    0 NMatD0=    1 NMtDS0=    0 NMtDT0=    0
 Petite list used in FoFCou.
 Closed shell SCF:
 Using DIIS extrapolation, IDIIS=  1040.
 NGot=   754974720 LenX=   754771907 LenY=   754769617
 Requested convergence on RMS density matrix=1.00D-08 within 200 cycles.
 Requested convergence on MAX density matrix=1.00D-06.
 Requested convergence on             energy=1.00D-06.
 No special actions if energy rises.

 Cycle   1  Pass 1  IDiag  1:
 E= -75.9561489150663    
 DIIS: error= 5.14D-02 at cycle   1 NSaved=   1.
 NSaved= 1 IEnMin= 1 EnMin= -75.9561489150663     IErMin= 1 ErrMin= 5.14D-02
 ErrMax= 5.14D-02  0.00D+00 EMaxC= 1.00D-01 BMatC= 1.21D-01 BMatP= 1.21D-01
 IDIUse=3 WtCom= 4.86D-01 WtEn= 5.14D-01
 Coeff-Com:  0.100D+01
 Coeff-En:   0.100D+01
 Coeff:      0.100D+01
 Gap=     0.459 Goal=   None    Shift=    0.000
 GapD=    0.459 DampG=2.000 DampE=0.500 DampFc=1.0000 IDamp=-1.
 RMSDP=6.43D-03 MaxDP=1.19D-01              OVMax= 1.20D-01

 Cycle   2  Pass 1  IDiag  1:
 E= -76.0027391331241     Delta-E=       -0.046590218058 Rises=F Damp=F
 DIIS: error= 3.96D-02 at cycle   2 NSaved=   2.
 NSaved= 2 IEnMin= 2 EnMin= -76.0027391331241     IErMin= 2 ErrMin= 3.96D-02
 ErrMax= 3.96D-02  0.00D+00 EMaxC= 1.00D-01 BMatC= 4.56D-02 BMatP= 1.21D-01
 IDIUse=3 WtCom= 6.04D-01 WtEn= 3.96D-01
 Coeff-Com:  0.370D+00 0.630D+00
 Coeff-En:   0.199D+00 0.801D+00
 Coeff:      0.302D+00 0.698D+00
 Gap=     0.567 Goal=   None    Shift=    0.000
 RMSDP=2.98D-03 MaxDP=5.44D-02 DE=-4.66D-02 OVMax= 5.85D-02

 Cycle   3  Pass 1  IDiag  1:
 E= -76.0337708234177     Delta-E=       -0.031031690294 Rises=F Damp=F
 DIIS: error= 4.76D-03 at cycle   3 NSaved=   3.
 NSaved= 3 IEnMin= 3 EnMin= -76.0337708234177     IErMin= 3 ErrMin= 4.76D-03
 ErrMax= 4.76D-03  0.00D+00 EMaxC= 1.00D-01 BMatC= 1.19D-03 BMatP= 4.56D-02
 IDIUse=3 WtCom= 9.52D-01 WtEn= 4.76D-02
 Coeff-Com: -0.377D-01 0.940D-01 0.944D+00
 Coeff-En:   0.000D+00 0.000D+00 0.100D+01
 Coeff:     -0.359D-01 0.896D-01 0.946D+00
 Gap=     0.548 Goal=   None    Shift=    0.000
 RMSDP=4.74D-04 MaxDP=8.30D-03 DE=-3.10D-02 OVMax= 9.24D-03

 Cycle   4  Pass 1  IDiag  1:
 E= -76.0346519782538     Delta-E=       -0.000881154836 Rises=F Damp=F
 DIIS: error= 6.07D-04 at cycle   4 NSaved=   4.
 NSaved= 4 IEnMin= 4 EnMin= -76.0346519782538     IErMin= 4 ErrMin= 6.07D-04
 ErrMax= 6.07D-04  0.00D+00 EMaxC= 1.00D-01 BMatC= 6.40D-06 BMatP= 1.19D-03
 IDIUse=3 WtCom= 9.94D-01 WtEn= 6.07D-03
 Coeff-Com:  0.964D-02-0.440D-01-0.339D+00 0.137D+01
 Coeff-En:   0.000D+00 0.000D+00 0.000D+00 0.100D+01
 Coeff:      0.959D-02-0.438D-01-0.337D+00 0.137D+01
 Gap=     0.549 Goal=   None    Shift=    0.000
 RMSDP=1.03D-04 MaxDP=1.04D-03 DE=-8.81D-04 OVMax= 1.94D-03

 Cycle   5  Pass 1  IDiag  1:
 E= -76.0346671744597     Delta-E=       -0.000015196206 Rises=F Damp=F
 DIIS: error= 1.54D-04 at cycle   5 NSaved=   5.
 NSaved= 5 IEnMin= 5 EnMin= -76.0346671744597     IErMin= 5 ErrMin= 1.54D-04
 ErrMax= 1.54D-04  0.00D+00 EMaxC= 1.00D-01 BMatC= 2.33D-07 BMatP= 6.40D-06
 IDIUse=3 WtCom= 9.98D-01 WtEn= 1.54D-03
 Coeff-Com: -0.147D-02 0.884D-02 0.671D-01-0.414D+00 0.134D+01
 Coeff-En:   0.000D+00 0.000D+00 0.000D+00 0.000D+00 0.100D+01
 Coeff:     -0.147D-02 0.882D-02 0.670D-01-0.414D+00 0.134D+01
 Gap=     0.549 Goal=   None    Shift=    0.000
 RMSDP=2.21D-05 MaxDP=3.53D-04 DE=-1.52D-05 OVMax= 4.75D-04

 Cycle   6  Pass 1  IDiag  1:
 E= -76.0346678454479     Delta-E=       -0.000000670988 Rises=F Damp=F
 DIIS: error= 2.07D-05 at cycle   6 NSaved=   6.
 NSaved= 6 IEnMin= 6 EnMin= -76.0346678454479     IErMin= 6 ErrMin= 2.07D-05
 ErrMax= 2.07D-05  0.00D+00 EMaxC= 1.00D-01 BMatC= 6.56D-09 BMatP= 2.33D-07
 IDIUse=1 WtCom= 1.00D+00 WtEn= 0.00D+00
 Coeff-Com: -0.110D-03 0.215D-03 0.102D-02 0.193D-01-0.234D+00 0.121D+01
 Coeff:     -0.110D-03 0.215D-03 0.102D-02 0.193D-01-0.234D+00 0.121D+01
 Gap=     0.549 Goal=   None    Shift=    0.000
 RMSDP=2.84D-06 MaxDP=5.87D-05 DE=-6.71D-07 OVMax= 7.82D-05

 Cycle   7  Pass 1  IDiag  1:
 E= -76.0346678629827     Delta-E=       -0.000000017535 Rises=F Damp=F
 DIIS: error= 4.00D-06 at cycle   7 NSaved=   7.
 NSaved= 7 IEnMin= 7 EnMin= -76.0346678629827     IErMin= 7 ErrMin= 4.00D-06
 ErrMax= 4.00D-06  0.00D+00 EMaxC= 1.00D-01 BMatC= 3.19D-10 BMatP= 6.56D-09
 IDIUse=1 WtCom= 1.00D+00 WtEn= 0.00D+00
 Coeff-Com:  0.108D-03-0.571D-03-0.436D-02 0.222D-01-0.356D-01-0.202D+00
 Coeff-Com:  0.122D+01
 Coeff:      0.108D-03-0.571D-03-0.436D-02 0.222D-01-0.356D-01-0.202D+00
 Coeff:      0.122D+01
 Gap=     0.549 Goal=   None    Shift=    0.000
 RMSDP=6.28D-07 MaxDP=9.49D-06 DE=-1.75D-08 OVMax= 1.57D-05

 Cycle   8  Pass 1  IDiag  1:
 E= -76.0346678637314     Delta-E=       -0.000000000749 Rises=F Damp=F
 DIIS: error= 6.32D-07 at cycle   8 NSaved=   8.
 NSaved= 8 IEnMin= 8 EnMin= -76.0346678637314     IErMin= 8 ErrMin= 6.32D-07
 ErrMax= 6.32D-07  0.00D+00 EMaxC= 1.00D-01 BMatC= 8.38D-12 BMatP= 3.19D-10
 IDIUse=1 WtCom= 1.00D+00 WtEn= 0.00D+00
 Coeff-Com: -0.197D-04 0.116D-03 0.930D-03-0.569D-02 0.156D-01 0.107D-01
 Coeff-Com: -0.309D+00 0.129D+01
 Coeff:     -0.197D-04 0.116D-03 0.930D-03-0.569D-02 0.156D-01 0.107D-01
 Coeff:     -0.309D+00 0.129D+01
 Gap=     0.549 Goal=   None    Shift=    0.000
 RMSDP=1.53D-07 MaxDP=1.97D-06 DE=-7.49D-10 OVMax= 2.74D-06

 Cycle   9  Pass 1  IDiag  1:
 E= -76.0346678637532     Delta-E=       -0.000000000022 Rises=F Damp=F
 DIIS: error= 8.83D-08 at cycle   9 NSaved=   9.
 NSaved= 9 IEnMin= 9 EnMin= -76.0346678637532     IErMin= 9 ErrMin= 8.83D-08
 ErrMax= 8.83D-08  0.00D+00 EMaxC= 1.00D-01 BMatC= 2.02D-13 BMatP= 8.38D-12
 IDIUse=1 WtCom= 1.00D+00 WtEn= 0.00D+00
 Coeff-Com:  0.705D-06-0.561D-05-0.582D-04 0.520D-03-0.212D-02 0.310D-02
 Coeff-Com:  0.321D-01-0.246D+00 0.121D+01
 Coeff:      0.705D-06-0.561D-05-0.582D-04 0.520D-03-0.212D-02 0.310D-02
 Coeff:      0.321D-01-0.246D+00 0.121D+01
 Gap=     0.549 Goal=   None    Shift=    0.000
 RMSDP=2.18D-08 MaxDP=2.31D-07 DE=-2.18D-11 OVMax= 3.34D-07

 Cycle  10  Pass 1  IDiag  1:
 E= -76.0346678637536     Delta-E=       -0.000000000000 Rises=F Damp=F
 DIIS: error= 1.98D-08 at cycle  10 NSaved=  10.
 NSaved=10 IEnMin=10 EnMin= -76.0346678637536     IErMin=10 ErrMin= 1.98D-08
 ErrMax= 1.98D-08  0.00D+00 EMaxC= 1.00D-01 BMatC= 1.01D-14 BMatP= 2.02D-13
 IDIUse=1 WtCom= 1.00D+00 WtEn= 0.00D+00
 Coeff-Com:  0.597D-06-0.317D-05-0.211D-04 0.828D-04-0.213D-04-0.129D-02
 Coeff-Com:  0.407D-02 0.813D-02-0.309D+00 0.130D+01
 Coeff:      0.597D-06-0.317D-05-0.211D-04 0.828D-04-0.213D-04-0.129D-02
 Coeff:      0.407D-02 0.813D-02-0.309D+00 0.130D+01
 Gap=     0.549 Goal=   None    Shift=    0.000
 RMSDP=5.39D-09 MaxDP=5.64D-08 DE=-3.55D-13 OVMax= 1.03D-07

 SCF Done:  E(RHF) =  -76.0346678638     A.U. after   10 cycles
            NFock= 10  Conv=0.54D-08     -V/T= 1.9998
 KE= 7.604713490463D+01 PE=-1.994593570562D+02 EE= 3.791372129872D+01
 Leave Link  502 at Mon Feb 20 10:15:39 2023, MaxMem=   754974720 cpu:               2.8 elap:               1.0
 (Enter /opt/cluster/programs/g16-c.01/g16/l601.exe)
 Copying SCF densities to generalized density rwf, IOpCl= 0 IROHF=0.

 **********************************************************************

            Population analysis using the SCF Density.

 **********************************************************************

 Orbital symmetries:
       Occupied  (A') (A') (A') (A') (A")
       Virtual   (A') (A') (A') (A") (A') (A') (A') (A') (A') (A")
                 (A") (A') (A') (A') (A') (A') (A") (A') (A") (A')
                 (A') (A") (A') (A") (A') (A") (A') (A') (A') (A')
                 (A') (A") (A') (A") (A') (A')
 The electronic state is 1-A'.
 Alpha  occ. eigenvalues --  -20.57785  -1.37973  -0.70578  -0.61433  -0.51469
 Alpha virt. eigenvalues --    0.03461   0.05910   0.17167   0.19702   0.22434
 Alpha virt. eigenvalues --    0.23407   0.29212   0.35414   0.38609   0.39393
 Alpha virt. eigenvalues --    0.42111   0.55410   0.64710   0.66098   0.79807
 Alpha virt. eigenvalues --    0.96689   1.10769   1.12522   1.15057   1.28401
 Alpha virt. eigenvalues --    1.44908   1.47474   1.61635   2.00667   2.05585
 Alpha virt. eigenvalues --    2.15146   2.21110   2.54485   2.67046   2.74976
 Alpha virt. eigenvalues --    3.04528   3.68034   3.70436   3.70595   4.01747
 Alpha virt. eigenvalues --    4.37885
          Condensed to atoms (all electrons):
               1          2          3
     1  O    7.562767   0.328969   0.344400
     2  H    0.328969   0.553725  -0.026390
     3  H    0.344400  -0.026390   0.589550
 Mulliken charges:
               1
     1  O   -0.236136
     2  H    0.143696
     3  H    0.092440
 Sum of Mulliken charges =   0.00000
 Mulliken charges with hydrogens summed into heavy atoms:
               1
     1  O    0.000000
 Electronic spatial extent (au):  <R**2>=             19.2032
 Charge=              0.0000 electrons
 Dipole moment (field-independent basis, Debye):
    X=             -0.0299    Y=             -2.1625    Z=              0.0000  Tot=              2.1627
 Quadrupole moment (field-independent basis, Debye-Ang):
   XX=             -4.8441   YY=             -5.8895   ZZ=             -7.5120
   XY=             -0.1002   XZ=             -0.0000   YZ=             -0.0000
 Traceless Quadrupole moment (field-independent basis, Debye-Ang):
   XX=              1.2378   YY=              0.1924   ZZ=             -1.4301
   XY=             -0.1002   XZ=             -0.0000   YZ=             -0.0000
 Octapole moment (field-independent basis, Debye-Ang**2):
  XXX=             -0.0806  YYY=             -1.4486  ZZZ=              0.0000  XYY=              0.0780
  XXY=             -1.2425  XXZ=              0.0000  XZZ=             -0.0311  YZZ=             -0.3356
  YYZ=              0.0000  XYZ=              0.0000
 Hexadecapole moment (field-independent basis, Debye-Ang**3):
 XXXX=             -6.1680 YYYY=             -7.1464 ZZZZ=             -6.6576 XXXY=              0.0306
 XXXZ=              0.0000 YYYX=             -0.0077 YYYZ=              0.0000 ZZZX=              0.0000
 ZZZY=              0.0000 XXYY=             -1.8190 XXZZ=             -2.3285 YYZZ=             -2.3747
 XXYZ=             -0.0000 YYXZ=              0.0000 ZZXY=              0.0319
 N-N= 9.463832989138D+00 E-N=-1.994593570497D+02  KE= 7.604713490463D+01
 Symmetry A'   KE= 7.159332100198D+01
 Symmetry A"   KE= 4.453813902652D+00
 No NMR shielding tensors so no spin-rotation constants.
 Leave Link  601 at Mon Feb 20 10:15:39 2023, MaxMem=   754974720 cpu:               0.8 elap:               0.4
 (Enter /opt/cluster/programs/g16-c.01/g16/l9999.exe)
 Unable to Open any file for archive entry.
 1\1\GINC-NODE105\SP\RHF\Aug-CC-pVDZ\H2O1\BOITTIER\20-Feb-2023\0\\#P HF
 /aug-cc-pVDZ scf(maxcycle=200)\\Gaussian input\\0,1\O,0,0.,0.11751,0.\
 H,0,0.7578497316,-0.4701504329,0.\H,0,-0.5872191805,-0.5763593206,0.\\
 Version=ES64L-G16RevC.01\State=1-A'\HF=-76.0346679\RMSD=5.391e-09\Dipo
 le=0.1006418,-0.844883,0.\Quadrupole=0.9262069,0.1370738,-1.0632807,0.
 0297579,0.,0.\PG=CS [SG(H2O1)]\\@
 The archive entry for this job was punched.


 FROM WHENCE IT HAPPENS, THAT THEY WHICH TRUST TO BOOKS, DO AS THEY THAT CAST UP MANY LITTLE SUMMS INTO GREATER,
 WITHOUT CONSIDERING WETHER THOSE LITTLE SUMMES WERE RIGHTLY CAST UP OR NOT...
 AND AT LAST FINDING THE ERROUR VISIBLE, AND NOT MISTRUSTING THEIR FIRST GROUNDS,
 KNOW NOT WHICH WAY TO CLEERE THEMSELVES...
 BUT SPEND TIME IN FLUTTERING OVER THEIR BOOKES....
 AS BIRDS THAT ENTERING BY THE CHIMNEY, AND FINDING THEMSELVES INCLOSED IN A CHAMBER,
 FLUTTER AT THE FALSE LIGHT OF A GLASSE WINDOW,
 FOR WANT OF WIT TO CONSIDER WHICH WAY THEY CAME IN....
           LEVIATHAN
 Job cpu time:       0 days  0 hours  0 minutes  8.6 seconds.
 Elapsed time:       0 days  0 hours  0 minutes  3.8 seconds.
 File lengths (MBytes):  RWF=      6 Int=      0 D2E=      0 Chk=      1 Scr=      1
 Normal termination of Gaussian 16 at Mon Feb 20 10:15:39 2023.
