 Entering Gaussian System, Link 0=/opt/cluster/programs/g16-c.01/g16/g16
 Input=/scratch/boittier/jobs/tmp.7312108/gaussian_99_water_hf_adz.com
 Output=/scratch/boittier/jobs/tmp.7312108/gaussian_99_water_hf_adz.out
 Initial command:
 /opt/cluster/programs/g16-c.01/g16/l1.exe "/scratch/boittier/jobs/tmp.7312108/Gau-185561.inp" -scrdir="/scratch/boittier/jobs/tmp.7312108/"
 Entering Link 1 = /opt/cluster/programs/g16-c.01/g16/l1.exe PID=    185562.
  
 Copyright (c) 1988-2019, Gaussian, Inc.  All Rights Reserved.
  
 This is part of the Gaussian(R) 16 program.  It is based on
 the Gaussian(R) 09 system (copyright 2009, Gaussian, Inc.),
 the Gaussian(R) 03 system (copyright 2003, Gaussian, Inc.),
 the Gaussian(R) 98 system (copyright 1998, Gaussian, Inc.),
 the Gaussian(R) 94 system (copyright 1995, Gaussian, Inc.),
 the Gaussian 92(TM) system (copyright 1992, Gaussian, Inc.),
 the Gaussian 90(TM) system (copyright 1990, Gaussian, Inc.),
 the Gaussian 88(TM) system (copyright 1988, Gaussian, Inc.),
 the Gaussian 86(TM) system (copyright 1986, Carnegie Mellon
 University), and the Gaussian 82(TM) system (copyright 1983,
 Carnegie Mellon University). Gaussian is a federally registered
 trademark of Gaussian, Inc.
  
 This software contains proprietary and confidential information,
 including trade secrets, belonging to Gaussian, Inc.
  
 This software is provided under written license and may be
 used, copied, transmitted, or stored only in accord with that
 written license.
  
 The following legend is applicable only to US Government
 contracts under FAR:
  
                    RESTRICTED RIGHTS LEGEND
  
 Use, reproduction and disclosure by the US Government is
 subject to restrictions as set forth in subparagraphs (a)
 and (c) of the Commercial Computer Software - Restricted
 Rights clause in FAR 52.227-19.
  
 Gaussian, Inc.
 340 Quinnipiac St., Bldg. 40, Wallingford CT 06492
  
  
 ---------------------------------------------------------------
 Warning -- This program may not be used in any manner that
 competes with the business of Gaussian, Inc. or will provide
 assistance to any competitor of Gaussian, Inc.  The licensee
 of this program is prohibited from giving any competitor of
 Gaussian, Inc. access to this program.  By using this program,
 the user acknowledges that Gaussian, Inc. is engaged in the
 business of creating and licensing software in the field of
 computational chemistry and represents and warrants to the
 licensee that it is not a competitor of Gaussian, Inc. and that
 it will not use this program in any manner prohibited above.
 ---------------------------------------------------------------
  

 Cite this work as:
 Gaussian 16, Revision C.01,
 M. J. Frisch, G. W. Trucks, H. B. Schlegel, G. E. Scuseria, 
 M. A. Robb, J. R. Cheeseman, G. Scalmani, V. Barone, 
 G. A. Petersson, H. Nakatsuji, X. Li, M. Caricato, A. V. Marenich, 
 J. Bloino, B. G. Janesko, R. Gomperts, B. Mennucci, H. P. Hratchian, 
 J. V. Ortiz, A. F. Izmaylov, J. L. Sonnenberg, D. Williams-Young, 
 F. Ding, F. Lipparini, F. Egidi, J. Goings, B. Peng, A. Petrone, 
 T. Henderson, D. Ranasinghe, V. G. Zakrzewski, J. Gao, N. Rega, 
 G. Zheng, W. Liang, M. Hada, M. Ehara, K. Toyota, R. Fukuda, 
 J. Hasegawa, M. Ishida, T. Nakajima, Y. Honda, O. Kitao, H. Nakai, 
 T. Vreven, K. Throssell, J. A. Montgomery, Jr., J. E. Peralta, 
 F. Ogliaro, M. J. Bearpark, J. J. Heyd, E. N. Brothers, K. N. Kudin, 
 V. N. Staroverov, T. A. Keith, R. Kobayashi, J. Normand, 
 K. Raghavachari, A. P. Rendell, J. C. Burant, S. S. Iyengar, 
 J. Tomasi, M. Cossi, J. M. Millam, M. Klene, C. Adamo, R. Cammi, 
 J. W. Ochterski, R. L. Martin, K. Morokuma, O. Farkas, 
 J. B. Foresman, and D. J. Fox, Gaussian, Inc., Wallingford CT, 2019.
 
 ******************************************
 Gaussian 16:  ES64L-G16RevC.01  3-Jul-2019
                20-Feb-2023 
 ******************************************
 %nproc=4
 Will use up to    4 processors via shared memory.
 %mem=5760MB
 %chk=gaussian_99_water_hf_adz.chk
 -----------------------------------
 #P HF/aug-cc-pVDZ scf(maxcycle=200)
 -----------------------------------
 1/38=1,172=1/1;
 2/12=2,17=6,18=5,40=1/2;
 3/5=16,7=10,11=9,25=1,30=1/1,2,3;
 4//1;
 5/5=2,7=200,38=5/2;
 6/7=2,8=2,9=2,10=2,28=1/1;
 99/5=1,9=1/99;
 Leave Link    1 at Mon Feb 20 10:28:15 2023, MaxMem=   754974720 cpu:               0.1 elap:               0.0
 (Enter /opt/cluster/programs/g16-c.01/g16/l101.exe)
 --------------
 Gaussian input
 --------------
 Symbolic Z-matrix:
 Charge =  0 Multiplicity = 1
 O                     0.        0.11751   0. 
 H                     0.75785  -0.47015   0. 
 H                    -0.90254  -0.20669   0. 
 
 ITRead=  0  0  0
 MicOpt= -1 -1 -1
 NAtoms=      3 NQM=        3 NQMF=       0 NMMI=      0 NMMIF=      0
                NMic=       0 NMicF=      0.
                    Isotopes and Nuclear Properties:
 (Nuclear quadrupole moments (NQMom) in fm**2, nuclear magnetic moments (NMagM)
  in nuclear magnetons)

  Atom         1           2           3
 IAtWgt=          16           1           1
 AtmWgt=  15.9949146   1.0078250   1.0078250
 NucSpn=           0           1           1
 AtZEff=  -0.0000000  -0.0000000  -0.0000000
 NQMom=    0.0000000   0.0000000   0.0000000
 NMagM=    0.0000000   2.7928460   2.7928460
 AtZNuc=   8.0000000   1.0000000   1.0000000
 Leave Link  101 at Mon Feb 20 10:28:15 2023, MaxMem=   754974720 cpu:               0.8 elap:               0.4
 (Enter /opt/cluster/programs/g16-c.01/g16/l202.exe)
                          Input orientation:                          
 ---------------------------------------------------------------------
 Center     Atomic      Atomic             Coordinates (Angstroms)
 Number     Number       Type             X           Y           Z
 ---------------------------------------------------------------------
      1          8           0        0.000000    0.117510    0.000000
      2          1           0        0.757850   -0.470150    0.000000
      3          1           0       -0.902538   -0.206692    0.000000
 ---------------------------------------------------------------------
                    Distance matrix (angstroms):
                    1          2          3
     1  O    0.000000
     2  H    0.959000   0.000000
     3  H    0.959000   1.681159   0.000000
 Stoichiometry    H2O
 Framework group  C2V[C2(O),SGV(H2)]
 Deg. of freedom     2
 Full point group                 C2V     NOp   4
 Largest Abelian subgroup         C2V     NOp   4
 Largest concise Abelian subgroup C2      NOp   2
                         Standard orientation:                         
 ---------------------------------------------------------------------
 Center     Atomic      Atomic             Coordinates (Angstroms)
 Number     Number       Type             X           Y           Z
 ---------------------------------------------------------------------
      1          8           0        0.000000    0.000000    0.092327
      2          1           0       -0.000000    0.840580   -0.369308
      3          1           0       -0.000000   -0.840580   -0.369308
 ---------------------------------------------------------------------
 Rotational constants (GHZ):        1324.7987872         354.8496295         279.8825957
 Leave Link  202 at Mon Feb 20 10:28:15 2023, MaxMem=   754974720 cpu:               0.2 elap:               0.1
 (Enter /opt/cluster/programs/g16-c.01/g16/l301.exe)
 Standard basis: Aug-CC-pVDZ (5D, 7F)
 Ernie: Thresh=  0.10000D-02 Tol=  0.10000D-05 Strict=F.
 Ernie:  2 primitive shells out of 39 were deleted.
 There are    20 symmetry adapted cartesian basis functions of A1  symmetry.
 There are     4 symmetry adapted cartesian basis functions of A2  symmetry.
 There are     7 symmetry adapted cartesian basis functions of B1  symmetry.
 There are    12 symmetry adapted cartesian basis functions of B2  symmetry.
 There are    18 symmetry adapted basis functions of A1  symmetry.
 There are     4 symmetry adapted basis functions of A2  symmetry.
 There are     7 symmetry adapted basis functions of B1  symmetry.
 There are    12 symmetry adapted basis functions of B2  symmetry.
    41 basis functions,    65 primitive gaussians,    43 cartesian basis functions
     5 alpha electrons        5 beta electrons
       nuclear repulsion energy         9.1435861059 Hartrees.
 IExCor=    0 DFT=F Ex=HF Corr=None ExCW=0 ScaHFX=  1.000000
 ScaDFX=  1.000000  1.000000  1.000000  1.000000 ScalE2=  1.000000  1.000000
 IRadAn=      5 IRanWt=     -1 IRanGd=            0 ICorTp=0 IEmpDi=  4
 NAtoms=    3 NActive=    3 NUniq=    2 SFac= 2.25D+00 NAtFMM=   60 NAOKFM=F Big=F
 Integral buffers will be    131072 words long.
 Raffenetti 1 integral format.
 Two-electron integral symmetry is turned on.
 Leave Link  301 at Mon Feb 20 10:28:15 2023, MaxMem=   754974720 cpu:               0.2 elap:               0.1
 (Enter /opt/cluster/programs/g16-c.01/g16/l302.exe)
 NPDir=0 NMtPBC=     1 NCelOv=     1 NCel=       1 NClECP=     1 NCelD=      1
         NCelK=      1 NCelE2=     1 NClLst=     1 CellRange=     0.0.
 One-electron integrals computed using PRISM.
 One-electron integral symmetry used in STVInt
 NBasis=    41 RedAO= T EigKep=  3.00D-03  NBF=    18     4     7    12
 NBsUse=    41 1.00D-06 EigRej= -1.00D+00 NBFU=    18     4     7    12
 Leave Link  302 at Mon Feb 20 10:28:16 2023, MaxMem=   754974720 cpu:               1.0 elap:               0.5
 (Enter /opt/cluster/programs/g16-c.01/g16/l303.exe)
 DipDrv:  MaxL=1.
 Leave Link  303 at Mon Feb 20 10:28:16 2023, MaxMem=   754974720 cpu:               0.5 elap:               0.3
 (Enter /opt/cluster/programs/g16-c.01/g16/l401.exe)
 ExpMin= 2.97D-02 ExpMax= 1.17D+04 ExpMxC= 4.01D+02 IAcc=3 IRadAn=         5 AccDes= 0.00D+00
 Harris functional with IExCor=  205 and IRadAn=       5 diagonalized for initial guess.
 HarFok:  IExCor=  205 AccDes= 0.00D+00 IRadAn=         5 IDoV= 1 UseB2=F ITyADJ=14
 ICtDFT=  3500011 ScaDFX=  1.000000  1.000000  1.000000  1.000000
 FoFCou: FMM=F IPFlag=           0 FMFlag=      100000 FMFlg1=           0
         NFxFlg=           0 DoJE=T BraDBF=F KetDBF=T FulRan=T
         wScrn=  0.000000 ICntrl=       500 IOpCl=  0 I1Cent=   200000004 NGrid=           0
         NMat0=    1 NMatS0=      1 NMatT0=    0 NMatD0=    1 NMtDS0=    0 NMtDT0=    0
 Petite list used in FoFCou.
 Harris En= -76.1219000419544    
 JPrj=0 DoOrth=F DoCkMO=F.
 Initial guess orbital symmetries:
       Occupied  (A1) (A1) (B2) (A1) (B1)
       Virtual   (A1) (B2) (A1) (B1) (A1) (B2) (B2) (A1) (A2) (A1)
                 (B1) (B2) (A1) (B2) (B2) (A1) (B1) (A1) (A2) (B1)
                 (A1) (B2) (A1) (B2) (B1) (A2) (B2) (A1) (A1) (B2)
                 (A1) (B1) (A1) (A2) (B2) (A1)
 The electronic state of the initial guess is 1-A1.
 Leave Link  401 at Mon Feb 20 10:28:17 2023, MaxMem=   754974720 cpu:               2.7 elap:               1.4
 (Enter /opt/cluster/programs/g16-c.01/g16/l502.exe)
 Keep R1 ints in memory in symmetry-blocked form, NReq=1211502.
 FoFCou: FMM=F IPFlag=           0 FMFlag=           0 FMFlg1=           0
         NFxFlg=           0 DoJE=F BraDBF=F KetDBF=F FulRan=T
         wScrn=  0.000000 ICntrl=       600 IOpCl=  0 I1Cent=           0 NGrid=           0
         NMat0=    1 NMatS0=    861 NMatT0=    0 NMatD0=    1 NMtDS0=    0 NMtDT0=    0
 Petite list used in FoFCou.
 Closed shell SCF:
 Using DIIS extrapolation, IDIIS=  1040.
 NGot=   754974720 LenX=   754868251 LenY=   754865961
 Requested convergence on RMS density matrix=1.00D-08 within 200 cycles.
 Requested convergence on MAX density matrix=1.00D-06.
 Requested convergence on             energy=1.00D-06.
 No special actions if energy rises.

 Cycle   1  Pass 1  IDiag  1:
 E= -75.9563644054858    
 DIIS: error= 5.19D-02 at cycle   1 NSaved=   1.
 NSaved= 1 IEnMin= 1 EnMin= -75.9563644054858     IErMin= 1 ErrMin= 5.19D-02
 ErrMax= 5.19D-02  0.00D+00 EMaxC= 1.00D-01 BMatC= 1.20D-01 BMatP= 1.20D-01
 IDIUse=3 WtCom= 4.81D-01 WtEn= 5.19D-01
 Coeff-Com:  0.100D+01
 Coeff-En:   0.100D+01
 Coeff:      0.100D+01
 Gap=     0.456 Goal=   None    Shift=    0.000
 GapD=    0.456 DampG=2.000 DampE=0.500 DampFc=1.0000 IDamp=-1.
 RMSDP=6.31D-03 MaxDP=1.20D-01              OVMax= 1.20D-01

 Cycle   2  Pass 1  IDiag  1:
 E= -76.0021018416437     Delta-E=       -0.045737436158 Rises=F Damp=F
 DIIS: error= 3.98D-02 at cycle   2 NSaved=   2.
 NSaved= 2 IEnMin= 2 EnMin= -76.0021018416437     IErMin= 2 ErrMin= 3.98D-02
 ErrMax= 3.98D-02  0.00D+00 EMaxC= 1.00D-01 BMatC= 4.60D-02 BMatP= 1.20D-01
 IDIUse=3 WtCom= 6.02D-01 WtEn= 3.98D-01
 Coeff-Com:  0.372D+00 0.628D+00
 Coeff-En:   0.207D+00 0.793D+00
 Coeff:      0.306D+00 0.694D+00
 Gap=     0.558 Goal=   None    Shift=    0.000
 RMSDP=2.92D-03 MaxDP=5.47D-02 DE=-4.57D-02 OVMax= 5.92D-02

 Cycle   3  Pass 1  IDiag  1:
 E= -76.0336346348909     Delta-E=       -0.031532793247 Rises=F Damp=F
 DIIS: error= 4.88D-03 at cycle   3 NSaved=   3.
 NSaved= 3 IEnMin= 3 EnMin= -76.0336346348909     IErMin= 3 ErrMin= 4.88D-03
 ErrMax= 4.88D-03  0.00D+00 EMaxC= 1.00D-01 BMatC= 1.17D-03 BMatP= 4.60D-02
 IDIUse=3 WtCom= 9.51D-01 WtEn= 4.88D-02
 Coeff-Com: -0.364D-01 0.946D-01 0.942D+00
 Coeff-En:   0.000D+00 0.000D+00 0.100D+01
 Coeff:     -0.346D-01 0.900D-01 0.945D+00
 Gap=     0.539 Goal=   None    Shift=    0.000
 RMSDP=4.72D-04 MaxDP=8.19D-03 DE=-3.15D-02 OVMax= 8.82D-03

 Cycle   4  Pass 1  IDiag  1:
 E= -76.0345118166748     Delta-E=       -0.000877181784 Rises=F Damp=F
 DIIS: error= 5.52D-04 at cycle   4 NSaved=   4.
 NSaved= 4 IEnMin= 4 EnMin= -76.0345118166748     IErMin= 4 ErrMin= 5.52D-04
 ErrMax= 5.52D-04  0.00D+00 EMaxC= 1.00D-01 BMatC= 6.97D-06 BMatP= 1.17D-03
 IDIUse=3 WtCom= 9.94D-01 WtEn= 5.52D-03
 Coeff-Com:  0.824D-02-0.424D-01-0.317D+00 0.135D+01
 Coeff-En:   0.000D+00 0.000D+00 0.000D+00 0.100D+01
 Coeff:      0.820D-02-0.422D-01-0.316D+00 0.135D+01
 Gap=     0.540 Goal=   None    Shift=    0.000
 RMSDP=1.16D-04 MaxDP=9.74D-04 DE=-8.77D-04 OVMax= 2.41D-03

 Cycle   5  Pass 1  IDiag  1:
 E= -76.0345293066337     Delta-E=       -0.000017489959 Rises=F Damp=F
 DIIS: error= 1.54D-04 at cycle   5 NSaved=   5.
 NSaved= 5 IEnMin= 5 EnMin= -76.0345293066337     IErMin= 5 ErrMin= 1.54D-04
 ErrMax= 1.54D-04  0.00D+00 EMaxC= 1.00D-01 BMatC= 3.27D-07 BMatP= 6.97D-06
 IDIUse=3 WtCom= 9.98D-01 WtEn= 1.54D-03
 Coeff-Com:  0.761D-04 0.300D-02 0.190D-01-0.281D+00 0.126D+01
 Coeff-En:   0.000D+00 0.000D+00 0.000D+00 0.000D+00 0.100D+01
 Coeff:      0.760D-04 0.300D-02 0.190D-01-0.280D+00 0.126D+01
 Gap=     0.540 Goal=   None    Shift=    0.000
 RMSDP=3.00D-05 MaxDP=3.46D-04 DE=-1.75D-05 OVMax= 7.06D-04

 Cycle   6  Pass 1  IDiag  1:
 E= -76.0345303744665     Delta-E=       -0.000001067833 Rises=F Damp=F
 DIIS: error= 3.10D-05 at cycle   6 NSaved=   6.
 NSaved= 6 IEnMin= 6 EnMin= -76.0345303744665     IErMin= 6 ErrMin= 3.10D-05
 ErrMax= 3.10D-05  0.00D+00 EMaxC= 1.00D-01 BMatC= 1.36D-08 BMatP= 3.27D-07
 IDIUse=1 WtCom= 1.00D+00 WtEn= 0.00D+00
 Coeff-Com: -0.381D-03 0.145D-02 0.117D-01-0.198D-01-0.231D+00 0.124D+01
 Coeff:     -0.381D-03 0.145D-02 0.117D-01-0.198D-01-0.231D+00 0.124D+01
 Gap=     0.540 Goal=   None    Shift=    0.000
 RMSDP=5.48D-06 MaxDP=8.73D-05 DE=-1.07D-06 OVMax= 1.61D-04

 Cycle   7  Pass 1  IDiag  1:
 E= -76.0345304202969     Delta-E=       -0.000000045830 Rises=F Damp=F
 DIIS: error= 7.55D-06 at cycle   7 NSaved=   7.
 NSaved= 7 IEnMin= 7 EnMin= -76.0345304202969     IErMin= 7 ErrMin= 7.55D-06
 ErrMax= 7.55D-06  0.00D+00 EMaxC= 1.00D-01 BMatC= 7.09D-10 BMatP= 1.36D-08
 IDIUse=1 WtCom= 1.00D+00 WtEn= 0.00D+00
 Coeff-Com:  0.154D-03-0.751D-03-0.599D-02 0.236D-01 0.334D-01-0.495D+00
 Coeff-Com:  0.144D+01
 Coeff:      0.154D-03-0.751D-03-0.599D-02 0.236D-01 0.334D-01-0.495D+00
 Coeff:      0.144D+01
 Gap=     0.540 Goal=   None    Shift=    0.000
 RMSDP=1.11D-06 MaxDP=2.34D-05 DE=-4.58D-08 OVMax= 3.46D-05

 Cycle   8  Pass 1  IDiag  1:
 E= -76.0345304223892     Delta-E=       -0.000000002092 Rises=F Damp=F
 DIIS: error= 9.60D-07 at cycle   8 NSaved=   8.
 NSaved= 8 IEnMin= 8 EnMin= -76.0345304223892     IErMin= 8 ErrMin= 9.60D-07
 ErrMax= 9.60D-07  0.00D+00 EMaxC= 1.00D-01 BMatC= 1.76D-11 BMatP= 7.09D-10
 IDIUse=1 WtCom= 1.00D+00 WtEn= 0.00D+00
 Coeff-Com: -0.290D-04 0.155D-03 0.129D-02-0.639D-02-0.673D-03 0.102D+00
 Coeff-Com: -0.427D+00 0.133D+01
 Coeff:     -0.290D-04 0.155D-03 0.129D-02-0.639D-02-0.673D-03 0.102D+00
 Coeff:     -0.427D+00 0.133D+01
 Gap=     0.540 Goal=   None    Shift=    0.000
 RMSDP=1.99D-07 MaxDP=2.81D-06 DE=-2.09D-09 OVMax= 3.92D-06

 Cycle   9  Pass 1  IDiag  1:
 E= -76.0345304224295     Delta-E=       -0.000000000040 Rises=F Damp=F
 DIIS: error= 8.91D-08 at cycle   9 NSaved=   9.
 NSaved= 9 IEnMin= 9 EnMin= -76.0345304224295     IErMin= 9 ErrMin= 8.91D-08
 ErrMax= 8.91D-08  0.00D+00 EMaxC= 1.00D-01 BMatC= 1.53D-13 BMatP= 1.76D-11
 IDIUse=1 WtCom= 1.00D+00 WtEn= 0.00D+00
 Coeff-Com:  0.206D-05-0.123D-04-0.114D-03 0.745D-03-0.568D-03-0.948D-02
 Coeff-Com:  0.536D-01-0.239D+00 0.119D+01
 Coeff:      0.206D-05-0.123D-04-0.114D-03 0.745D-03-0.568D-03-0.948D-02
 Coeff:      0.536D-01-0.239D+00 0.119D+01
 Gap=     0.540 Goal=   None    Shift=    0.000
 RMSDP=1.69D-08 MaxDP=1.66D-07 DE=-4.03D-11 OVMax= 2.88D-07

 Cycle  10  Pass 1  IDiag  1:
 E= -76.0345304224298     Delta-E=       -0.000000000000 Rises=F Damp=F
 DIIS: error= 2.16D-08 at cycle  10 NSaved=  10.
 NSaved=10 IEnMin=10 EnMin= -76.0345304224298     IErMin=10 ErrMin= 2.16D-08
 ErrMax= 2.16D-08  0.00D+00 EMaxC= 1.00D-01 BMatC= 7.26D-15 BMatP= 1.53D-13
 IDIUse=1 WtCom= 1.00D+00 WtEn= 0.00D+00
 Coeff-Com: -0.133D-06 0.118D-05 0.155D-04-0.152D-03 0.288D-03 0.121D-02
 Coeff-Com: -0.102D-01 0.557D-01-0.424D+00 0.138D+01
 Coeff:     -0.133D-06 0.118D-05 0.155D-04-0.152D-03 0.288D-03 0.121D-02
 Coeff:     -0.102D-01 0.557D-01-0.424D+00 0.138D+01
 Gap=     0.540 Goal=   None    Shift=    0.000
 RMSDP=4.09D-09 MaxDP=3.71D-08 DE=-3.41D-13 OVMax= 6.21D-08

 SCF Done:  E(RHF) =  -76.0345304224     A.U. after   10 cycles
            NFock= 10  Conv=0.41D-08     -V/T= 2.0019
 KE= 7.589371660809D+01 PE=-1.988182913272D+02 EE= 3.774645819078D+01
 Leave Link  502 at Mon Feb 20 10:28:21 2023, MaxMem=   754974720 cpu:               6.9 elap:               3.4
 (Enter /opt/cluster/programs/g16-c.01/g16/l601.exe)
 Copying SCF densities to generalized density rwf, IOpCl= 0 IROHF=0.

 **********************************************************************

            Population analysis using the SCF Density.

 **********************************************************************

 Orbital symmetries:
       Occupied  (A1) (A1) (B2) (A1) (B1)
       Virtual   (A1) (B2) (A1) (B1) (A1) (B2) (B2) (A1) (A2) (A1)
                 (B1) (B2) (A1) (B2) (A1) (B2) (B1) (A1) (A2) (A1)
                 (B2) (B1) (A1) (B2) (B1) (A2) (A1) (B2) (A1) (B2)
                 (A1) (B1) (A1) (A2) (B2) (A1)
 The electronic state is 1-A1.
 Alpha  occ. eigenvalues --  -20.56837  -1.34377  -0.74900  -0.55099  -0.50369
 Alpha virt. eigenvalues --    0.03656   0.05636   0.17624   0.19486   0.21744
 Alpha virt. eigenvalues --    0.22549   0.30379   0.30655   0.37612   0.44133
 Alpha virt. eigenvalues --    0.46219   0.51939   0.65144   0.65269   0.86266
 Alpha virt. eigenvalues --    0.86515   1.07651   1.08111   1.14930   1.43561
 Alpha virt. eigenvalues --    1.47544   1.50164   1.57184   1.98178   2.04301
 Alpha virt. eigenvalues --    2.08911   2.43161   2.46166   2.62832   2.76342
 Alpha virt. eigenvalues --    2.84787   3.65414   3.66088   3.70953   4.21542
 Alpha virt. eigenvalues --    4.22277
          Condensed to atoms (all electrons):
               1          2          3
     1  O    7.668109   0.345223   0.345223
     2  H    0.345223   0.527297  -0.051798
     3  H    0.345223  -0.051798   0.527297
 Mulliken charges:
               1
     1  O   -0.358555
     2  H    0.179278
     3  H    0.179278
 Sum of Mulliken charges =  -0.00000
 Mulliken charges with hydrogens summed into heavy atoms:
               1
     1  O   -0.000000
 Electronic spatial extent (au):  <R**2>=             19.6023
 Charge=             -0.0000 electrons
 Dipole moment (field-independent basis, Debye):
    X=             -0.0000    Y=             -0.0000    Z=             -1.6761  Tot=              1.6761
 Quadrupole moment (field-independent basis, Debye-Ang):
   XX=             -7.6350   YY=             -3.5042   ZZ=             -6.8011
   XY=              0.0000   XZ=              0.0000   YZ=             -0.0000
 Traceless Quadrupole moment (field-independent basis, Debye-Ang):
   XX=             -1.6549   YY=              2.4759   ZZ=             -0.8210
   XY=              0.0000   XZ=              0.0000   YZ=             -0.0000
 Octapole moment (field-independent basis, Debye-Ang**2):
  XXX=              0.0000  YYY=              0.0000  ZZZ=             -0.8861  XYY=             -0.0000
  XXY=             -0.0000  XXZ=             -0.2497  XZZ=              0.0000  YZZ=             -0.0000
  YYZ=             -1.3488  XYZ=             -0.0000
 Hexadecapole moment (field-independent basis, Debye-Ang**3):
 XXXX=             -6.9771 YYYY=             -5.3201 ZZZZ=             -7.3359 XXXY=             -0.0000
 XXXZ=             -0.0000 YYYX=              0.0000 YYYZ=             -0.0000 ZZZX=             -0.0000
 ZZZY=             -0.0000 XXYY=             -2.5591 XXZZ=             -2.4067 YYZZ=             -2.1175
 XXYZ=             -0.0000 YYXZ=              0.0000 ZZXY=             -0.0000
 N-N= 9.143586105863D+00 E-N=-1.988182914817D+02  KE= 7.589371660809D+01
 Symmetry A1   KE= 6.797221458590D+01
 Symmetry A2   KE= 6.003082859466D-33
 Symmetry B1   KE= 4.421376758404D+00
 Symmetry B2   KE= 3.500125263780D+00
 No NMR shielding tensors so no spin-rotation constants.
 Leave Link  601 at Mon Feb 20 10:28:21 2023, MaxMem=   754974720 cpu:               1.0 elap:               0.5
 (Enter /opt/cluster/programs/g16-c.01/g16/l9999.exe)
 Unable to Open any file for archive entry.
 1\1\GINC-NODE105\SP\RHF\Aug-CC-pVDZ\H2O1\BOITTIER\20-Feb-2023\0\\#P HF
 /aug-cc-pVDZ scf(maxcycle=200)\\Gaussian input\\0,1\O,0,0.,0.11751,0.\
 H,0,0.7578497316,-0.4701504329,0.\H,0,-0.9025375702,-0.2066919964,0.\\
 Version=ES64L-G16RevC.01\State=1-A1\HF=-76.0345304\RMSD=4.094e-09\Dipo
 le=-0.1033394,-0.6512731,0.\Quadrupole=1.7805775,-0.5501844,-1.2303931
 ,-0.3793804,0.,0.\PG=C02V [C2(O1),SGV(H2)]\\@
 The archive entry for this job was punched.


 KINETICS       FACT
 ---------  =  -------
 MECHANISM     FICTION
 Job cpu time:       0 days  0 hours  0 minutes 13.6 seconds.
 Elapsed time:       0 days  0 hours  0 minutes  6.7 seconds.
 File lengths (MBytes):  RWF=      6 Int=      0 D2E=      0 Chk=      1 Scr=      1
 Normal termination of Gaussian 16 at Mon Feb 20 10:28:21 2023.
