 Entering Gaussian System, Link 0=/opt/cluster/programs/g16-c.01/g16/g16
 Input=/scratch/boittier/jobs/tmp.7311891/gaussian_63_water_hf_adz2.com
 Output=/scratch/boittier/jobs/tmp.7311891/gaussian_63_water_hf_adz2.out
 Initial command:
 /opt/cluster/programs/g16-c.01/g16/l1.exe "/scratch/boittier/jobs/tmp.7311891/Gau-180680.inp" -scrdir="/scratch/boittier/jobs/tmp.7311891/"
 Entering Link 1 = /opt/cluster/programs/g16-c.01/g16/l1.exe PID=    180681.
  
 Copyright (c) 1988-2019, Gaussian, Inc.  All Rights Reserved.
  
 This is part of the Gaussian(R) 16 program.  It is based on
 the Gaussian(R) 09 system (copyright 2009, Gaussian, Inc.),
 the Gaussian(R) 03 system (copyright 2003, Gaussian, Inc.),
 the Gaussian(R) 98 system (copyright 1998, Gaussian, Inc.),
 the Gaussian(R) 94 system (copyright 1995, Gaussian, Inc.),
 the Gaussian 92(TM) system (copyright 1992, Gaussian, Inc.),
 the Gaussian 90(TM) system (copyright 1990, Gaussian, Inc.),
 the Gaussian 88(TM) system (copyright 1988, Gaussian, Inc.),
 the Gaussian 86(TM) system (copyright 1986, Carnegie Mellon
 University), and the Gaussian 82(TM) system (copyright 1983,
 Carnegie Mellon University). Gaussian is a federally registered
 trademark of Gaussian, Inc.
  
 This software contains proprietary and confidential information,
 including trade secrets, belonging to Gaussian, Inc.
  
 This software is provided under written license and may be
 used, copied, transmitted, or stored only in accord with that
 written license.
  
 The following legend is applicable only to US Government
 contracts under FAR:
  
                    RESTRICTED RIGHTS LEGEND
  
 Use, reproduction and disclosure by the US Government is
 subject to restrictions as set forth in subparagraphs (a)
 and (c) of the Commercial Computer Software - Restricted
 Rights clause in FAR 52.227-19.
  
 Gaussian, Inc.
 340 Quinnipiac St., Bldg. 40, Wallingford CT 06492
  
  
 ---------------------------------------------------------------
 Warning -- This program may not be used in any manner that
 competes with the business of Gaussian, Inc. or will provide
 assistance to any competitor of Gaussian, Inc.  The licensee
 of this program is prohibited from giving any competitor of
 Gaussian, Inc. access to this program.  By using this program,
 the user acknowledges that Gaussian, Inc. is engaged in the
 business of creating and licensing software in the field of
 computational chemistry and represents and warrants to the
 licensee that it is not a competitor of Gaussian, Inc. and that
 it will not use this program in any manner prohibited above.
 ---------------------------------------------------------------
  

 Cite this work as:
 Gaussian 16, Revision C.01,
 M. J. Frisch, G. W. Trucks, H. B. Schlegel, G. E. Scuseria, 
 M. A. Robb, J. R. Cheeseman, G. Scalmani, V. Barone, 
 G. A. Petersson, H. Nakatsuji, X. Li, M. Caricato, A. V. Marenich, 
 J. Bloino, B. G. Janesko, R. Gomperts, B. Mennucci, H. P. Hratchian, 
 J. V. Ortiz, A. F. Izmaylov, J. L. Sonnenberg, D. Williams-Young, 
 F. Ding, F. Lipparini, F. Egidi, J. Goings, B. Peng, A. Petrone, 
 T. Henderson, D. Ranasinghe, V. G. Zakrzewski, J. Gao, N. Rega, 
 G. Zheng, W. Liang, M. Hada, M. Ehara, K. Toyota, R. Fukuda, 
 J. Hasegawa, M. Ishida, T. Nakajima, Y. Honda, O. Kitao, H. Nakai, 
 T. Vreven, K. Throssell, J. A. Montgomery, Jr., J. E. Peralta, 
 F. Ogliaro, M. J. Bearpark, J. J. Heyd, E. N. Brothers, K. N. Kudin, 
 V. N. Staroverov, T. A. Keith, R. Kobayashi, J. Normand, 
 K. Raghavachari, A. P. Rendell, J. C. Burant, S. S. Iyengar, 
 J. Tomasi, M. Cossi, J. M. Millam, M. Klene, C. Adamo, R. Cammi, 
 J. W. Ochterski, R. L. Martin, K. Morokuma, O. Farkas, 
 J. B. Foresman, and D. J. Fox, Gaussian, Inc., Wallingford CT, 2019.
 
 ******************************************
 Gaussian 16:  ES64L-G16RevC.01  3-Jul-2019
                20-Feb-2023 
 ******************************************
 %nproc=4
 Will use up to    4 processors via shared memory.
 %mem=5760MB
 %chk=gaussian_63_water_hf_adz2.chk
 -----------------------------------
 #P HF/aug-cc-pVDZ scf(maxcycle=200)
 -----------------------------------
 1/38=1,172=1/1;
 2/12=2,17=6,18=5,40=1/2;
 3/5=16,7=10,11=9,25=1,30=1/1,2,3;
 4//1;
 5/5=2,7=200,38=5/2;
 6/7=2,8=2,9=2,10=2,28=1/1;
 99/5=1,9=1/99;
 Leave Link    1 at Mon Feb 20 10:15:35 2023, MaxMem=   754974720 cpu:               0.1 elap:               0.0
 (Enter /opt/cluster/programs/g16-c.01/g16/l101.exe)
 --------------
 Gaussian input
 --------------
 Symbolic Z-matrix:
 Charge =  0 Multiplicity = 1
 O                     0.        0.11751   0. 
 H                     0.75785  -0.47015   0. 
 H                    -0.56265  -0.59643   0. 
 
 ITRead=  0  0  0
 MicOpt= -1 -1 -1
 NAtoms=      3 NQM=        3 NQMF=       0 NMMI=      0 NMMIF=      0
                NMic=       0 NMicF=      0.
                    Isotopes and Nuclear Properties:
 (Nuclear quadrupole moments (NQMom) in fm**2, nuclear magnetic moments (NMagM)
  in nuclear magnetons)

  Atom         1           2           3
 IAtWgt=          16           1           1
 AtmWgt=  15.9949146   1.0078250   1.0078250
 NucSpn=           0           1           1
 AtZEff=  -0.0000000  -0.0000000  -0.0000000
 NQMom=    0.0000000   0.0000000   0.0000000
 NMagM=    0.0000000   2.7928460   2.7928460
 AtZNuc=   8.0000000   1.0000000   1.0000000
 Leave Link  101 at Mon Feb 20 10:15:36 2023, MaxMem=   754974720 cpu:               0.4 elap:               0.2
 (Enter /opt/cluster/programs/g16-c.01/g16/l202.exe)
                          Input orientation:                          
 ---------------------------------------------------------------------
 Center     Atomic      Atomic             Coordinates (Angstroms)
 Number     Number       Type             X           Y           Z
 ---------------------------------------------------------------------
      1          8           0        0.000000    0.117510    0.000000
      2          1           0        0.757850   -0.470150    0.000000
      3          1           0       -0.562646   -0.596430    0.000000
 ---------------------------------------------------------------------
                    Distance matrix (angstroms):
                    1          2          3
     1  O    0.000000
     2  H    0.959000   0.000000
     3  H    0.909000   1.326520   0.000000
 Stoichiometry    H2O
 Framework group  CS[SG(H2O)]
 Deg. of freedom     3
 Full point group                 CS      NOp   2
 Largest Abelian subgroup         CS      NOp   2
 Largest concise Abelian subgroup C1      NOp   1
                         Standard orientation:                         
 ---------------------------------------------------------------------
 Center     Atomic      Atomic             Coordinates (Angstroms)
 Number     Number       Type             X           Y           Z
 ---------------------------------------------------------------------
      1          8           0        0.000000    0.131616   -0.000000
      2          1           0        0.662310   -0.561945   -0.000000
      3          1           0       -0.662310   -0.490981    0.000000
 ---------------------------------------------------------------------
 Rotational constants (GHZ):         665.2103399         560.1603105         304.0911992
 Leave Link  202 at Mon Feb 20 10:15:36 2023, MaxMem=   754974720 cpu:               0.1 elap:               0.0
 (Enter /opt/cluster/programs/g16-c.01/g16/l301.exe)
 Standard basis: Aug-CC-pVDZ (5D, 7F)
 Ernie: Thresh=  0.10000D-02 Tol=  0.10000D-05 Strict=F.
 Ernie:  2 primitive shells out of 39 were deleted.
 There are    32 symmetry adapted cartesian basis functions of A'  symmetry.
 There are    11 symmetry adapted cartesian basis functions of A"  symmetry.
 There are    30 symmetry adapted basis functions of A'  symmetry.
 There are    11 symmetry adapted basis functions of A"  symmetry.
    41 basis functions,    65 primitive gaussians,    43 cartesian basis functions
     5 alpha electrons        5 beta electrons
       nuclear repulsion energy         9.4705550460 Hartrees.
 IExCor=    0 DFT=F Ex=HF Corr=None ExCW=0 ScaHFX=  1.000000
 ScaDFX=  1.000000  1.000000  1.000000  1.000000 ScalE2=  1.000000  1.000000
 IRadAn=      5 IRanWt=     -1 IRanGd=            0 ICorTp=0 IEmpDi=  4
 NAtoms=    3 NActive=    3 NUniq=    3 SFac= 1.00D+00 NAtFMM=   60 NAOKFM=F Big=F
 Integral buffers will be    131072 words long.
 Raffenetti 1 integral format.
 Two-electron integral symmetry is turned on.
 Leave Link  301 at Mon Feb 20 10:15:36 2023, MaxMem=   754974720 cpu:               0.1 elap:               0.1
 (Enter /opt/cluster/programs/g16-c.01/g16/l302.exe)
 NPDir=0 NMtPBC=     1 NCelOv=     1 NCel=       1 NClECP=     1 NCelD=      1
         NCelK=      1 NCelE2=     1 NClLst=     1 CellRange=     0.0.
 One-electron integrals computed using PRISM.
 One-electron integral symmetry used in STVInt
 NBasis=    41 RedAO= T EigKep=  1.74D-03  NBF=    30    11
 NBsUse=    41 1.00D-06 EigRej= -1.00D+00 NBFU=    30    11
 Leave Link  302 at Mon Feb 20 10:15:36 2023, MaxMem=   754974720 cpu:               1.0 elap:               0.5
 (Enter /opt/cluster/programs/g16-c.01/g16/l303.exe)
 DipDrv:  MaxL=1.
 Leave Link  303 at Mon Feb 20 10:15:37 2023, MaxMem=   754974720 cpu:               0.7 elap:               0.3
 (Enter /opt/cluster/programs/g16-c.01/g16/l401.exe)
 ExpMin= 2.97D-02 ExpMax= 1.17D+04 ExpMxC= 4.01D+02 IAcc=3 IRadAn=         5 AccDes= 0.00D+00
 Harris functional with IExCor=  205 and IRadAn=       5 diagonalized for initial guess.
 HarFok:  IExCor=  205 AccDes= 0.00D+00 IRadAn=         5 IDoV= 1 UseB2=F ITyADJ=14
 ICtDFT=  3500011 ScaDFX=  1.000000  1.000000  1.000000  1.000000
 FoFCou: FMM=F IPFlag=           0 FMFlag=      100000 FMFlg1=           0
         NFxFlg=           0 DoJE=T BraDBF=F KetDBF=T FulRan=T
         wScrn=  0.000000 ICntrl=       500 IOpCl=  0 I1Cent=   200000004 NGrid=           0
         NMat0=    1 NMatS0=      1 NMatT0=    0 NMatD0=    1 NMtDS0=    0 NMtDT0=    0
 Petite list used in FoFCou.
 Harris En= -76.1170458088845    
 JPrj=0 DoOrth=F DoCkMO=F.
 Initial guess orbital symmetries:
       Occupied  (A') (A') (A') (A') (A")
       Virtual   (A') (A') (A') (A") (A') (A') (A') (A') (A') (A")
                 (A") (A') (A') (A') (A') (A') (A") (A') (A") (A')
                 (A") (A') (A') (A") (A') (A") (A') (A') (A') (A')
                 (A') (A") (A') (A") (A') (A')
 The electronic state of the initial guess is 1-A'.
 Leave Link  401 at Mon Feb 20 10:15:37 2023, MaxMem=   754974720 cpu:               0.8 elap:               0.3
 (Enter /opt/cluster/programs/g16-c.01/g16/l502.exe)
 Keep R1 ints in memory in symmetry-blocked form, NReq=1210696.
 FoFCou: FMM=F IPFlag=           0 FMFlag=           0 FMFlg1=           0
         NFxFlg=           0 DoJE=F BraDBF=F KetDBF=F FulRan=T
         wScrn=  0.000000 ICntrl=       600 IOpCl=  0 I1Cent=           0 NGrid=           0
         NMat0=    1 NMatS0=    861 NMatT0=    0 NMatD0=    1 NMtDS0=    0 NMtDT0=    0
 Petite list used in FoFCou.
 Closed shell SCF:
 Using DIIS extrapolation, IDIIS=  1040.
 NGot=   754974720 LenX=   754771907 LenY=   754769617
 Requested convergence on RMS density matrix=1.00D-08 within 200 cycles.
 Requested convergence on MAX density matrix=1.00D-06.
 Requested convergence on             energy=1.00D-06.
 No special actions if energy rises.

 Cycle   1  Pass 1  IDiag  1:
 E= -75.9544185232741    
 DIIS: error= 5.14D-02 at cycle   1 NSaved=   1.
 NSaved= 1 IEnMin= 1 EnMin= -75.9544185232741     IErMin= 1 ErrMin= 5.14D-02
 ErrMax= 5.14D-02  0.00D+00 EMaxC= 1.00D-01 BMatC= 1.20D-01 BMatP= 1.20D-01
 IDIUse=3 WtCom= 4.86D-01 WtEn= 5.14D-01
 Coeff-Com:  0.100D+01
 Coeff-En:   0.100D+01
 Coeff:      0.100D+01
 Gap=     0.460 Goal=   None    Shift=    0.000
 GapD=    0.460 DampG=2.000 DampE=0.500 DampFc=1.0000 IDamp=-1.
 RMSDP=6.44D-03 MaxDP=1.19D-01              OVMax= 1.21D-01

 Cycle   2  Pass 1  IDiag  1:
 E= -76.0008643507672     Delta-E=       -0.046445827493 Rises=F Damp=F
 DIIS: error= 3.97D-02 at cycle   2 NSaved=   2.
 NSaved= 2 IEnMin= 2 EnMin= -76.0008643507672     IErMin= 2 ErrMin= 3.97D-02
 ErrMax= 3.97D-02  0.00D+00 EMaxC= 1.00D-01 BMatC= 4.57D-02 BMatP= 1.20D-01
 IDIUse=3 WtCom= 6.03D-01 WtEn= 3.97D-01
 Coeff-Com:  0.371D+00 0.629D+00
 Coeff-En:   0.200D+00 0.800D+00
 Coeff:      0.303D+00 0.697D+00
 Gap=     0.567 Goal=   None    Shift=    0.000
 RMSDP=2.98D-03 MaxDP=5.44D-02 DE=-4.64D-02 OVMax= 5.86D-02

 Cycle   3  Pass 1  IDiag  1:
 E= -76.0320038583709     Delta-E=       -0.031139507604 Rises=F Damp=F
 DIIS: error= 4.74D-03 at cycle   3 NSaved=   3.
 NSaved= 3 IEnMin= 3 EnMin= -76.0320038583709     IErMin= 3 ErrMin= 4.74D-03
 ErrMax= 4.74D-03  0.00D+00 EMaxC= 1.00D-01 BMatC= 1.19D-03 BMatP= 4.57D-02
 IDIUse=3 WtCom= 9.53D-01 WtEn= 4.74D-02
 Coeff-Com: -0.378D-01 0.937D-01 0.944D+00
 Coeff-En:   0.000D+00 0.000D+00 0.100D+01
 Coeff:     -0.360D-01 0.892D-01 0.947D+00
 Gap=     0.548 Goal=   None    Shift=    0.000
 RMSDP=4.73D-04 MaxDP=8.32D-03 DE=-3.11D-02 OVMax= 9.25D-03

 Cycle   4  Pass 1  IDiag  1:
 E= -76.0328841248999     Delta-E=       -0.000880266529 Rises=F Damp=F
 DIIS: error= 6.13D-04 at cycle   4 NSaved=   4.
 NSaved= 4 IEnMin= 4 EnMin= -76.0328841248999     IErMin= 4 ErrMin= 6.13D-04
 ErrMax= 6.13D-04  0.00D+00 EMaxC= 1.00D-01 BMatC= 6.41D-06 BMatP= 1.19D-03
 IDIUse=3 WtCom= 9.94D-01 WtEn= 6.13D-03
 Coeff-Com:  0.969D-02-0.439D-01-0.340D+00 0.137D+01
 Coeff-En:   0.000D+00 0.000D+00 0.000D+00 0.100D+01
 Coeff:      0.964D-02-0.437D-01-0.338D+00 0.137D+01
 Gap=     0.549 Goal=   None    Shift=    0.000
 RMSDP=1.03D-04 MaxDP=1.05D-03 DE=-8.80D-04 OVMax= 1.92D-03

 Cycle   5  Pass 1  IDiag  1:
 E= -76.0328993437090     Delta-E=       -0.000015218809 Rises=F Damp=F
 DIIS: error= 1.56D-04 at cycle   5 NSaved=   5.
 NSaved= 5 IEnMin= 5 EnMin= -76.0328993437090     IErMin= 5 ErrMin= 1.56D-04
 ErrMax= 1.56D-04  0.00D+00 EMaxC= 1.00D-01 BMatC= 2.33D-07 BMatP= 6.41D-06
 IDIUse=3 WtCom= 9.98D-01 WtEn= 1.56D-03
 Coeff-Com: -0.159D-02 0.928D-02 0.710D-01-0.429D+00 0.135D+01
 Coeff-En:   0.000D+00 0.000D+00 0.000D+00 0.000D+00 0.100D+01
 Coeff:     -0.159D-02 0.927D-02 0.709D-01-0.428D+00 0.135D+01
 Gap=     0.550 Goal=   None    Shift=    0.000
 RMSDP=2.22D-05 MaxDP=3.58D-04 DE=-1.52D-05 OVMax= 4.82D-04

 Cycle   6  Pass 1  IDiag  1:
 E= -76.0329000158941     Delta-E=       -0.000000672185 Rises=F Damp=F
 DIIS: error= 2.00D-05 at cycle   6 NSaved=   6.
 NSaved= 6 IEnMin= 6 EnMin= -76.0329000158941     IErMin= 6 ErrMin= 2.00D-05
 ErrMax= 2.00D-05  0.00D+00 EMaxC= 1.00D-01 BMatC= 6.42D-09 BMatP= 2.33D-07
 IDIUse=1 WtCom= 1.00D+00 WtEn= 0.00D+00
 Coeff-Com: -0.748D-04 0.346D-04-0.427D-03 0.265D-01-0.246D+00 0.122D+01
 Coeff:     -0.748D-04 0.346D-04-0.427D-03 0.265D-01-0.246D+00 0.122D+01
 Gap=     0.550 Goal=   None    Shift=    0.000
 RMSDP=2.77D-06 MaxDP=5.71D-05 DE=-6.72D-07 OVMax= 7.64D-05

 Cycle   7  Pass 1  IDiag  1:
 E= -76.0329000327424     Delta-E=       -0.000000016848 Rises=F Damp=F
 DIIS: error= 3.73D-06 at cycle   7 NSaved=   7.
 NSaved= 7 IEnMin= 7 EnMin= -76.0329000327424     IErMin= 7 ErrMin= 3.73D-06
 ErrMax= 3.73D-06  0.00D+00 EMaxC= 1.00D-01 BMatC= 2.95D-10 BMatP= 6.42D-09
 IDIUse=1 WtCom= 1.00D+00 WtEn= 0.00D+00
 Coeff-Com:  0.106D-03-0.556D-03-0.426D-02 0.217D-01-0.373D-01-0.183D+00
 Coeff-Com:  0.120D+01
 Coeff:      0.106D-03-0.556D-03-0.426D-02 0.217D-01-0.373D-01-0.183D+00
 Coeff:      0.120D+01
 Gap=     0.550 Goal=   None    Shift=    0.000
 RMSDP=6.04D-07 MaxDP=9.06D-06 DE=-1.68D-08 OVMax= 1.49D-05

 Cycle   8  Pass 1  IDiag  1:
 E= -76.0329000334323     Delta-E=       -0.000000000690 Rises=F Damp=F
 DIIS: error= 6.15D-07 at cycle   8 NSaved=   8.
 NSaved= 8 IEnMin= 8 EnMin= -76.0329000334323     IErMin= 8 ErrMin= 6.15D-07
 ErrMax= 6.15D-07  0.00D+00 EMaxC= 1.00D-01 BMatC= 7.82D-12 BMatP= 2.95D-10
 IDIUse=1 WtCom= 1.00D+00 WtEn= 0.00D+00
 Coeff-Com: -0.196D-04 0.115D-03 0.922D-03-0.566D-02 0.161D-01 0.454D-02
 Coeff-Com: -0.297D+00 0.128D+01
 Coeff:     -0.196D-04 0.115D-03 0.922D-03-0.566D-02 0.161D-01 0.454D-02
 Coeff:     -0.297D+00 0.128D+01
 Gap=     0.550 Goal=   None    Shift=    0.000
 RMSDP=1.49D-07 MaxDP=1.94D-06 DE=-6.90D-10 OVMax= 2.66D-06

 Cycle   9  Pass 1  IDiag  1:
 E= -76.0329000334527     Delta-E=       -0.000000000020 Rises=F Damp=F
 DIIS: error= 8.76D-08 at cycle   9 NSaved=   9.
 NSaved= 9 IEnMin= 9 EnMin= -76.0329000334527     IErMin= 9 ErrMin= 8.76D-08
 ErrMax= 8.76D-08  0.00D+00 EMaxC= 1.00D-01 BMatC= 1.97D-13 BMatP= 7.82D-12
 IDIUse=1 WtCom= 1.00D+00 WtEn= 0.00D+00
 Coeff-Com:  0.105D-05-0.749D-05-0.735D-04 0.609D-03-0.240D-02 0.366D-02
 Coeff-Com:  0.345D-01-0.260D+00 0.122D+01
 Coeff:      0.105D-05-0.749D-05-0.735D-04 0.609D-03-0.240D-02 0.366D-02
 Coeff:      0.345D-01-0.260D+00 0.122D+01
 Gap=     0.550 Goal=   None    Shift=    0.000
 RMSDP=2.12D-08 MaxDP=2.25D-07 DE=-2.04D-11 OVMax= 3.24D-07

 Cycle  10  Pass 1  IDiag  1:
 E= -76.0329000334531     Delta-E=       -0.000000000000 Rises=F Damp=F
 DIIS: error= 1.92D-08 at cycle  10 NSaved=  10.
 NSaved=10 IEnMin=10 EnMin= -76.0329000334531     IErMin=10 ErrMin= 1.92D-08
 ErrMax= 1.92D-08  0.00D+00 EMaxC= 1.00D-01 BMatC= 9.39D-15 BMatP= 1.97D-13
 IDIUse=1 WtCom= 1.00D+00 WtEn= 0.00D+00
 Coeff-Com:  0.481D-06-0.247D-05-0.152D-04 0.442D-04 0.818D-04-0.125D-02
 Coeff-Com:  0.203D-02 0.180D-01-0.331D+00 0.131D+01
 Coeff:      0.481D-06-0.247D-05-0.152D-04 0.442D-04 0.818D-04-0.125D-02
 Coeff:      0.203D-02 0.180D-01-0.331D+00 0.131D+01
 Gap=     0.550 Goal=   None    Shift=    0.000
 RMSDP=5.21D-09 MaxDP=5.46D-08 DE=-4.55D-13 OVMax= 9.98D-08

 SCF Done:  E(RHF) =  -76.0329000335     A.U. after   10 cycles
            NFock= 10  Conv=0.52D-08     -V/T= 1.9998
 KE= 7.605026064041D+01 PE=-1.994675202722D+02 EE= 3.791380455233D+01
 Leave Link  502 at Mon Feb 20 10:15:40 2023, MaxMem=   754974720 cpu:               5.9 elap:               3.0
 (Enter /opt/cluster/programs/g16-c.01/g16/l601.exe)
 Copying SCF densities to generalized density rwf, IOpCl= 0 IROHF=0.

 **********************************************************************

            Population analysis using the SCF Density.

 **********************************************************************

 Orbital symmetries:
       Occupied  (A') (A') (A') (A') (A")
       Virtual   (A') (A') (A') (A") (A') (A') (A') (A') (A') (A")
                 (A") (A') (A') (A') (A') (A') (A") (A') (A") (A')
                 (A') (A") (A') (A") (A') (A") (A') (A') (A') (A')
                 (A') (A") (A') (A") (A') (A')
 The electronic state is 1-A'.
 Alpha  occ. eigenvalues --  -20.57854  -1.38158  -0.70104  -0.61845  -0.51520
 Alpha virt. eigenvalues --    0.03439   0.05927   0.17136   0.19728   0.22427
 Alpha virt. eigenvalues --    0.23458   0.29162   0.35727   0.38289   0.39502
 Alpha virt. eigenvalues --    0.41862   0.55591   0.64615   0.66075   0.79476
 Alpha virt. eigenvalues --    0.96877   1.10871   1.12514   1.15051   1.28436
 Alpha virt. eigenvalues --    1.44491   1.47209   1.62148   2.00647   2.06066
 Alpha virt. eigenvalues --    2.15171   2.18082   2.55276   2.66675   2.75280
 Alpha virt. eigenvalues --    3.05037   3.68094   3.70281   3.70529   4.02013
 Alpha virt. eigenvalues --    4.37594
          Condensed to atoms (all electrons):
               1          2          3
     1  O    7.567629   0.326954   0.342825
     2  H    0.326954   0.551618  -0.022476
     3  H    0.342825  -0.022476   0.586148
 Mulliken charges:
               1
     1  O   -0.237408
     2  H    0.143904
     3  H    0.093504
 Sum of Mulliken charges =   0.00000
 Mulliken charges with hydrogens summed into heavy atoms:
               1
     1  O    0.000000
 Electronic spatial extent (au):  <R**2>=             19.1988
 Charge=              0.0000 electrons
 Dipole moment (field-independent basis, Debye):
    X=             -0.0307    Y=             -2.1908    Z=              0.0000  Tot=              2.1911
 Quadrupole moment (field-independent basis, Debye-Ang):
   XX=             -4.9285   YY=             -5.8311   ZZ=             -7.5092
   XY=             -0.0950   XZ=             -0.0000   YZ=             -0.0000
 Traceless Quadrupole moment (field-independent basis, Debye-Ang):
   XX=              1.1611   YY=              0.2585   ZZ=             -1.4196
   XY=             -0.0950   XZ=             -0.0000   YZ=             -0.0000
 Octapole moment (field-independent basis, Debye-Ang**2):
  XXX=             -0.0820  YYY=             -1.4869  ZZZ=              0.0000  XYY=              0.0759
  XXY=             -1.2241  XXZ=              0.0000  XZZ=             -0.0311  YZZ=             -0.3394
  YYZ=              0.0000  XYZ=              0.0000
 Hexadecapole moment (field-independent basis, Debye-Ang**3):
 XXXX=             -6.2106 YYYY=             -7.1463 ZZZZ=             -6.6464 XXXY=              0.0350
 XXXZ=              0.0000 YYYX=             -0.0082 YYYZ=              0.0000 ZZZX=              0.0000
 ZZZY=              0.0000 XXYY=             -1.8167 XXZZ=             -2.3196 YYZZ=             -2.3777
 XXYZ=              0.0000 YYXZ=             -0.0000 ZZXY=              0.0318
 N-N= 9.470555045964D+00 E-N=-1.994675202911D+02  KE= 7.605026064041D+01
 Symmetry A'   KE= 7.159507703914D+01
 Symmetry A"   KE= 4.455183601268D+00
 No NMR shielding tensors so no spin-rotation constants.
 Leave Link  601 at Mon Feb 20 10:15:41 2023, MaxMem=   754974720 cpu:               1.6 elap:               0.8
 (Enter /opt/cluster/programs/g16-c.01/g16/l9999.exe)
 Unable to Open any file for archive entry.
 1\1\GINC-NODE105\SP\RHF\Aug-CC-pVDZ\H2O1\BOITTIER\20-Feb-2023\0\\#P HF
 /aug-cc-pVDZ scf(maxcycle=200)\\Gaussian input\\0,1\O,0,0.,0.11751,0.\
 H,0,0.7578497316,-0.4701504329,0.\H,0,-0.5626457724,-0.596430288,0.\\V
 ersion=ES64L-G16RevC.01\State=1-A'\HF=-76.0329\RMSD=5.210e-09\Dipole=0
 .1158858,-0.8542017,0.\Quadrupole=0.8692,0.1862089,-1.055409,0.030868,
 0.,0.\PG=CS [SG(H2O1)]\\@
 The archive entry for this job was punched.


 THERE ARE TWO THINGS THAT EVERYBODY THINKS THEY CAN DO BETTER THAN
 ANYONE ELSE - PUNCH THE FIRE, AND EDIT A DAILY PAPER.
 -- UNCLE ESEK, "CENTURY MAGAZINE", 1885
 Job cpu time:       0 days  0 hours  0 minutes 11.1 seconds.
 Elapsed time:       0 days  0 hours  0 minutes  5.3 seconds.
 File lengths (MBytes):  RWF=      6 Int=      0 D2E=      0 Chk=      1 Scr=      1
 Normal termination of Gaussian 16 at Mon Feb 20 10:15:41 2023.
