 Entering Gaussian System, Link 0=/opt/cluster/programs/g16-c.01/g16/g16
 Input=/scratch/boittier/jobs/tmp.7262052/gaussian_110_water_wb97_ptz.com
 Output=/scratch/boittier/jobs/tmp.7262052/gaussian_110_water_wb97_ptz.out
 Initial command:
 /opt/cluster/programs/g16-c.01/g16/l1.exe "/scratch/boittier/jobs/tmp.7262052/Gau-110349.inp" -scrdir="/scratch/boittier/jobs/tmp.7262052/"
 Entering Link 1 = /opt/cluster/programs/g16-c.01/g16/l1.exe PID=    110350.
  
 Copyright (c) 1988-2019, Gaussian, Inc.  All Rights Reserved.
  
 This is part of the Gaussian(R) 16 program.  It is based on
 the Gaussian(R) 09 system (copyright 2009, Gaussian, Inc.),
 the Gaussian(R) 03 system (copyright 2003, Gaussian, Inc.),
 the Gaussian(R) 98 system (copyright 1998, Gaussian, Inc.),
 the Gaussian(R) 94 system (copyright 1995, Gaussian, Inc.),
 the Gaussian 92(TM) system (copyright 1992, Gaussian, Inc.),
 the Gaussian 90(TM) system (copyright 1990, Gaussian, Inc.),
 the Gaussian 88(TM) system (copyright 1988, Gaussian, Inc.),
 the Gaussian 86(TM) system (copyright 1986, Carnegie Mellon
 University), and the Gaussian 82(TM) system (copyright 1983,
 Carnegie Mellon University). Gaussian is a federally registered
 trademark of Gaussian, Inc.
  
 This software contains proprietary and confidential information,
 including trade secrets, belonging to Gaussian, Inc.
  
 This software is provided under written license and may be
 used, copied, transmitted, or stored only in accord with that
 written license.
  
 The following legend is applicable only to US Government
 contracts under FAR:
  
                    RESTRICTED RIGHTS LEGEND
  
 Use, reproduction and disclosure by the US Government is
 subject to restrictions as set forth in subparagraphs (a)
 and (c) of the Commercial Computer Software - Restricted
 Rights clause in FAR 52.227-19.
  
 Gaussian, Inc.
 340 Quinnipiac St., Bldg. 40, Wallingford CT 06492
  
  
 ---------------------------------------------------------------
 Warning -- This program may not be used in any manner that
 competes with the business of Gaussian, Inc. or will provide
 assistance to any competitor of Gaussian, Inc.  The licensee
 of this program is prohibited from giving any competitor of
 Gaussian, Inc. access to this program.  By using this program,
 the user acknowledges that Gaussian, Inc. is engaged in the
 business of creating and licensing software in the field of
 computational chemistry and represents and warrants to the
 licensee that it is not a competitor of Gaussian, Inc. and that
 it will not use this program in any manner prohibited above.
 ---------------------------------------------------------------
  

 Cite this work as:
 Gaussian 16, Revision C.01,
 M. J. Frisch, G. W. Trucks, H. B. Schlegel, G. E. Scuseria, 
 M. A. Robb, J. R. Cheeseman, G. Scalmani, V. Barone, 
 G. A. Petersson, H. Nakatsuji, X. Li, M. Caricato, A. V. Marenich, 
 J. Bloino, B. G. Janesko, R. Gomperts, B. Mennucci, H. P. Hratchian, 
 J. V. Ortiz, A. F. Izmaylov, J. L. Sonnenberg, D. Williams-Young, 
 F. Ding, F. Lipparini, F. Egidi, J. Goings, B. Peng, A. Petrone, 
 T. Henderson, D. Ranasinghe, V. G. Zakrzewski, J. Gao, N. Rega, 
 G. Zheng, W. Liang, M. Hada, M. Ehara, K. Toyota, R. Fukuda, 
 J. Hasegawa, M. Ishida, T. Nakajima, Y. Honda, O. Kitao, H. Nakai, 
 T. Vreven, K. Throssell, J. A. Montgomery, Jr., J. E. Peralta, 
 F. Ogliaro, M. J. Bearpark, J. J. Heyd, E. N. Brothers, K. N. Kudin, 
 V. N. Staroverov, T. A. Keith, R. Kobayashi, J. Normand, 
 K. Raghavachari, A. P. Rendell, J. C. Burant, S. S. Iyengar, 
 J. Tomasi, M. Cossi, J. M. Millam, M. Klene, C. Adamo, R. Cammi, 
 J. W. Ochterski, R. L. Martin, K. Morokuma, O. Farkas, 
 J. B. Foresman, and D. J. Fox, Gaussian, Inc., Wallingford CT, 2019.
 
 ******************************************
 Gaussian 16:  ES64L-G16RevC.01  3-Jul-2019
                 8-Feb-2023 
 ******************************************
 %nproc=4
 Will use up to    4 processors via shared memory.
 %mem=5760MB
 %chk=gaussian_110_water_wb97_ptz.chk
 ------------------------------------
 #P wB97XD/6-311g** scf(maxcycle=200)
 ------------------------------------
 1/38=1,172=1/1;
 2/12=2,17=6,18=5,40=1/2;
 3/5=4,6=6,7=101,11=2,25=1,30=1,74=-58/1,2,3;
 4//1;
 5/5=2,7=200,38=5/2;
 6/7=2,8=2,9=2,10=2,28=1/1;
 99/5=1,9=1/99;
 Leave Link    1 at Wed Feb  8 14:41:46 2023, MaxMem=   754974720 cpu:               0.1 elap:               0.0
 (Enter /opt/cluster/programs/g16-c.01/g16/l101.exe)
 --------------
 Gaussian input
 --------------
 Symbolic Z-matrix:
 Charge =  0 Multiplicity = 1
 O                     0.        0.11751   0. 
 H                     0.75785  -0.47015   0. 
 H                    -0.79771  -0.50034   0. 
 
 ITRead=  0  0  0
 MicOpt= -1 -1 -1
 NAtoms=      3 NQM=        3 NQMF=       0 NMMI=      0 NMMIF=      0
                NMic=       0 NMicF=      0.
                    Isotopes and Nuclear Properties:
 (Nuclear quadrupole moments (NQMom) in fm**2, nuclear magnetic moments (NMagM)
  in nuclear magnetons)

  Atom         1           2           3
 IAtWgt=          16           1           1
 AtmWgt=  15.9949146   1.0078250   1.0078250
 NucSpn=           0           1           1
 AtZEff=  -0.0000000  -0.0000000  -0.0000000
 NQMom=    0.0000000   0.0000000   0.0000000
 NMagM=    0.0000000   2.7928460   2.7928460
 AtZNuc=   8.0000000   1.0000000   1.0000000
 Leave Link  101 at Wed Feb  8 14:41:46 2023, MaxMem=   754974720 cpu:               0.7 elap:               0.2
 (Enter /opt/cluster/programs/g16-c.01/g16/l202.exe)
                          Input orientation:                          
 ---------------------------------------------------------------------
 Center     Atomic      Atomic             Coordinates (Angstroms)
 Number     Number       Type             X           Y           Z
 ---------------------------------------------------------------------
      1          8           0        0.000000    0.117510    0.000000
      2          1           0        0.757850   -0.470150    0.000000
      3          1           0       -0.797710   -0.500341    0.000000
 ---------------------------------------------------------------------
                    Distance matrix (angstroms):
                    1          2          3
     1  O    0.000000
     2  H    0.959000   0.000000
     3  H    1.009000   1.555853   0.000000
 Stoichiometry    H2O
 Framework group  CS[SG(H2O)]
 Deg. of freedom     3
 Full point group                 CS      NOp   2
 Largest Abelian subgroup         CS      NOp   2
 Largest concise Abelian subgroup C1      NOp   1
                         Standard orientation:                         
 ---------------------------------------------------------------------
 Center     Atomic      Atomic             Coordinates (Angstroms)
 Number     Number       Type             X           Y           Z
 ---------------------------------------------------------------------
      1          8           0        0.000000    0.120617    0.000000
      2          1           0        0.776856   -0.441678    0.000000
      3          1           0       -0.776856   -0.523258    0.000000
 ---------------------------------------------------------------------
 Rotational constants (GHZ):         780.8033893         413.0184202         270.1292436
 Leave Link  202 at Wed Feb  8 14:41:46 2023, MaxMem=   754974720 cpu:               0.0 elap:               0.0
 (Enter /opt/cluster/programs/g16-c.01/g16/l301.exe)
 Standard basis: 6-311G(d,p) (5D, 7F)
 Ernie: Thresh=  0.10000D-02 Tol=  0.10000D-05 Strict=F.
 There are    24 symmetry adapted cartesian basis functions of A'  symmetry.
 There are     7 symmetry adapted cartesian basis functions of A"  symmetry.
 There are    23 symmetry adapted basis functions of A'  symmetry.
 There are     7 symmetry adapted basis functions of A"  symmetry.
    30 basis functions,    48 primitive gaussians,    31 cartesian basis functions
     5 alpha electrons        5 beta electrons
       nuclear repulsion energy         8.9501855850 Hartrees.
 IExCor= 4639 DFT=T Ex+Corr=wB97XD ExCW=0 ScaHFX=  1.000000
 ScaDFX=  1.000000  1.000000  1.000000  1.000000 ScalE2=  1.000000  1.000000
 IRadAn=      5 IRanWt=     -1 IRanGd=            0 ICorTp=0 IEmpDi=121
 HFx  wShort=  0.000000 wLong=  0.200000 cFull=  0.222036 cShort=  0.000000 cLong=  0.777964
 DFx  wShort=  0.000000 wLong=  0.200000 cFull=  0.000000 cShort=  0.000000 cLong=  1.000000
 NAtoms=    3 NActive=    3 NUniq=    3 SFac= 1.00D+00 NAtFMM=   60 NAOKFM=F Big=F
 Integral buffers will be    131072 words long.
 Raffenetti 2 integral format.
 Two-electron integral symmetry is turned on.
 R6Disp:  Grimme-D2 Dispersion energy=       -0.0000314963 Hartrees.
 Nuclear repulsion after empirical dispersion term =        8.9501540887 Hartrees.
 Leave Link  301 at Wed Feb  8 14:41:46 2023, MaxMem=   754974720 cpu:               0.1 elap:               0.0
 (Enter /opt/cluster/programs/g16-c.01/g16/l302.exe)
 NPDir=0 NMtPBC=     1 NCelOv=     1 NCel=       1 NClECP=     1 NCelD=      1
         NCelK=      1 NCelE2=     1 NClLst=     1 CellRange=     0.0.
 One-electron integrals computed using PRISM.
 One-electron integral symmetry used in STVInt
 NBasis=    30 RedAO= T EigKep=  1.96D-02  NBF=    23     7
 NBsUse=    30 1.00D-06 EigRej= -1.00D+00 NBFU=    23     7
 Precomputing XC quadrature grid using
 IXCGrd= 4 IRadAn=           5 IRanWt=          -1 IRanGd=           0 AccXCQ= 0.00D+00.
 Generated NRdTot=       0 NPtTot=           0 NUsed=           0 NTot=          32
 NSgBfM=    31    31    31    31    31 MxSgAt=     3 MxSgA2=     3.
 Leave Link  302 at Wed Feb  8 14:41:47 2023, MaxMem=   754974720 cpu:               0.4 elap:               0.1
 (Enter /opt/cluster/programs/g16-c.01/g16/l303.exe)
 DipDrv:  MaxL=1.
 Leave Link  303 at Wed Feb  8 14:41:47 2023, MaxMem=   754974720 cpu:               0.2 elap:               0.1
 (Enter /opt/cluster/programs/g16-c.01/g16/l401.exe)
 ExpMin= 1.03D-01 ExpMax= 8.59D+03 ExpMxC= 1.30D+03 IAcc=3 IRadAn=         5 AccDes= 0.00D+00
 Harris functional with IExCor= 4639 and IRadAn=       5 diagonalized for initial guess.
 HarFok:  IExCor= 4639 AccDes= 0.00D+00 IRadAn=         5 IDoV= 1 UseB2=F ITyADJ=14
 ICtDFT=  3500011 ScaDFX=  1.000000  1.000000  1.000000  1.000000
 FoFCou: FMM=F IPFlag=           0 FMFlag=      100000 FMFlg1=           0
         NFxFlg=           0 DoJE=T BraDBF=F KetDBF=T FulRan=T
         wScrn=  0.000000 ICntrl=       500 IOpCl=  0 I1Cent=   200000004 NGrid=           0
         NMat0=    1 NMatS0=      1 NMatT0=    0 NMatD0=    1 NMtDS0=    0 NMtDT0=    0
 Petite list used in FoFCou.
 Harris En= -73.6155331932940    
 JPrj=0 DoOrth=F DoCkMO=F.
 Initial guess orbital symmetries:
       Occupied  (A') (A') (A') (A') (A")
       Virtual   (A') (A') (A') (A') (A') (A") (A') (A') (A') (A")
                 (A") (A') (A') (A') (A') (A') (A") (A") (A') (A')
                 (A') (A") (A') (A') (A')
 The electronic state of the initial guess is 1-A'.
 Leave Link  401 at Wed Feb  8 14:41:47 2023, MaxMem=   754974720 cpu:               0.5 elap:               0.1
 (Enter /opt/cluster/programs/g16-c.01/g16/l502.exe)
 Keep R1 ints in memory in symmetry-blocked form, NReq=3688183.
 FoFCou: FMM=F IPFlag=           0 FMFlag=           0 FMFlg1=           0
         NFxFlg=           0 DoJE=F BraDBF=F KetDBF=F FulRan=T
         wScrn=  0.000000 ICntrl=       600 IOpCl=  0 I1Cent=           0 NGrid=           0
         NMat0=    1 NMatS0=    465 NMatT0=    0 NMatD0=    1 NMtDS0=    0 NMtDT0=    0
 Petite list used in FoFCou.
 Closed shell SCF:
 Using DIIS extrapolation, IDIIS=  1040.
 NGot=   754974720 LenX=   754911268 LenY=   754909866
 Requested convergence on RMS density matrix=1.00D-08 within 200 cycles.
 Requested convergence on MAX density matrix=1.00D-06.
 Requested convergence on             energy=1.00D-06.
 No special actions if energy rises.
 Integral accuracy reduced to 1.0D-05 until final iterations.

 Cycle   1  Pass 0  IDiag  1:
 E= -76.4103361891849    
 DIIS: error= 8.10D-02 at cycle   1 NSaved=   1.
 NSaved= 1 IEnMin= 1 EnMin= -76.4103361891849     IErMin= 1 ErrMin= 8.10D-02
 ErrMax= 8.10D-02  0.00D+00 EMaxC= 1.00D-01 BMatC= 1.30D-01 BMatP= 1.30D-01
 IDIUse=3 WtCom= 1.90D-01 WtEn= 8.10D-01
 Coeff-Com:  0.100D+01
 Coeff-En:   0.100D+01
 Coeff:      0.100D+01
 Gap=     0.490 Goal=   None    Shift=    0.000
 GapD=    0.490 DampG=2.000 DampE=0.500 DampFc=1.0000 IDamp=-1.
 RMSDP=2.74D-03 MaxDP=2.49D-02              OVMax= 3.55D-02

 Cycle   2  Pass 0  IDiag  1:
 E= -76.4207097145719     Delta-E=       -0.010373525387 Rises=F Damp=F
 DIIS: error= 4.08D-03 at cycle   2 NSaved=   2.
 NSaved= 2 IEnMin= 2 EnMin= -76.4207097145719     IErMin= 2 ErrMin= 4.08D-03
 ErrMax= 4.08D-03  0.00D+00 EMaxC= 1.00D-01 BMatC= 5.66D-04 BMatP= 1.30D-01
 IDIUse=3 WtCom= 9.59D-01 WtEn= 4.08D-02
 Coeff-Com:  0.456D-01 0.954D+00
 Coeff-En:   0.000D+00 0.100D+01
 Coeff:      0.437D-01 0.956D+00
 Gap=     0.499 Goal=   None    Shift=    0.000
 RMSDP=3.23D-04 MaxDP=3.27D-03 DE=-1.04D-02 OVMax= 4.80D-03

 Cycle   3  Pass 0  IDiag  1:
 E= -76.4209229039764     Delta-E=       -0.000213189405 Rises=F Damp=F
 DIIS: error= 9.29D-04 at cycle   3 NSaved=   3.
 NSaved= 3 IEnMin= 3 EnMin= -76.4209229039764     IErMin= 3 ErrMin= 9.29D-04
 ErrMax= 9.29D-04  0.00D+00 EMaxC= 1.00D-01 BMatC= 2.35D-05 BMatP= 5.66D-04
 IDIUse=3 WtCom= 9.91D-01 WtEn= 9.29D-03
 Coeff-Com:  0.796D-02 0.179D+00 0.813D+00
 Coeff-En:   0.000D+00 0.000D+00 0.100D+01
 Coeff:      0.789D-02 0.177D+00 0.815D+00
 Gap=     0.497 Goal=   None    Shift=    0.000
 RMSDP=1.26D-04 MaxDP=1.51D-03 DE=-2.13D-04 OVMax= 1.71D-03

 Cycle   4  Pass 0  IDiag  1:
 E= -76.4209351530266     Delta-E=       -0.000012249050 Rises=F Damp=F
 DIIS: error= 4.43D-04 at cycle   4 NSaved=   4.
 NSaved= 4 IEnMin= 4 EnMin= -76.4209351530266     IErMin= 4 ErrMin= 4.43D-04
 ErrMax= 4.43D-04  0.00D+00 EMaxC= 1.00D-01 BMatC= 5.31D-06 BMatP= 2.35D-05
 IDIUse=3 WtCom= 9.96D-01 WtEn= 4.43D-03
 Coeff-Com:  0.123D-02 0.417D-01 0.332D+00 0.625D+00
 Coeff-En:   0.000D+00 0.000D+00 0.000D+00 0.100D+01
 Coeff:      0.123D-02 0.415D-01 0.330D+00 0.627D+00
 Gap=     0.498 Goal=   None    Shift=    0.000
 RMSDP=4.10D-05 MaxDP=5.92D-04 DE=-1.22D-05 OVMax= 5.45D-04

 Cycle   5  Pass 0  IDiag  1:
 E= -76.4209383276531     Delta-E=       -0.000003174627 Rises=F Damp=F
 DIIS: error= 1.14D-04 at cycle   5 NSaved=   5.
 NSaved= 5 IEnMin= 5 EnMin= -76.4209383276531     IErMin= 5 ErrMin= 1.14D-04
 ErrMax= 1.14D-04  0.00D+00 EMaxC= 1.00D-01 BMatC= 2.96D-07 BMatP= 5.31D-06
 IDIUse=3 WtCom= 9.99D-01 WtEn= 1.14D-03
 Coeff-Com: -0.739D-03-0.191D-01-0.471D-01 0.153D+00 0.914D+00
 Coeff-En:   0.000D+00 0.000D+00 0.000D+00 0.000D+00 0.100D+01
 Coeff:     -0.738D-03-0.191D-01-0.470D-01 0.153D+00 0.914D+00
 Gap=     0.497 Goal=   None    Shift=    0.000
 RMSDP=1.81D-05 MaxDP=2.22D-04 DE=-3.17D-06 OVMax= 3.11D-04

 Cycle   6  Pass 0  IDiag  1:
 E= -76.4209386047157     Delta-E=       -0.000000277063 Rises=F Damp=F
 DIIS: error= 1.33D-05 at cycle   6 NSaved=   6.
 NSaved= 6 IEnMin= 6 EnMin= -76.4209386047157     IErMin= 6 ErrMin= 1.33D-05
 ErrMax= 1.33D-05  0.00D+00 EMaxC= 1.00D-01 BMatC= 3.80D-09 BMatP= 2.96D-07
 IDIUse=1 WtCom= 1.00D+00 WtEn= 0.00D+00
 Coeff-Com:  0.111D-03 0.246D-02 0.408D-02-0.508D-01-0.134D+00 0.118D+01
 Coeff:      0.111D-03 0.246D-02 0.408D-02-0.508D-01-0.134D+00 0.118D+01
 Gap=     0.497 Goal=   None    Shift=    0.000
 RMSDP=3.94D-06 MaxDP=4.42D-05 DE=-2.77D-07 OVMax= 6.68D-05

 Initial convergence to 1.0D-05 achieved.  Increase integral accuracy.
 Cycle   7  Pass 1  IDiag  1:
 E= -76.4209464965274     Delta-E=       -0.000007891812 Rises=F Damp=F
 DIIS: error= 1.16D-05 at cycle   1 NSaved=   1.
 NSaved= 1 IEnMin= 1 EnMin= -76.4209464965274     IErMin= 1 ErrMin= 1.16D-05
 ErrMax= 1.16D-05  0.00D+00 EMaxC= 1.00D-01 BMatC= 3.59D-09 BMatP= 3.59D-09
 IDIUse=1 WtCom= 1.00D+00 WtEn= 0.00D+00
 Coeff-Com:  0.100D+01
 Coeff:      0.100D+01
 Gap=     0.497 Goal=   None    Shift=    0.000
 RMSDP=3.94D-06 MaxDP=4.42D-05 DE=-7.89D-06 OVMax= 1.77D-05

 Cycle   8  Pass 1  IDiag  1:
 E= -76.4209464996081     Delta-E=       -0.000000003081 Rises=F Damp=F
 DIIS: error= 1.63D-06 at cycle   2 NSaved=   2.
 NSaved= 2 IEnMin= 2 EnMin= -76.4209464996081     IErMin= 2 ErrMin= 1.63D-06
 ErrMax= 1.63D-06  0.00D+00 EMaxC= 1.00D-01 BMatC= 7.79D-11 BMatP= 3.59D-09
 IDIUse=1 WtCom= 1.00D+00 WtEn= 0.00D+00
 Coeff-Com: -0.702D-01 0.107D+01
 Coeff:     -0.702D-01 0.107D+01
 Gap=     0.497 Goal=   None    Shift=    0.000
 RMSDP=3.75D-07 MaxDP=3.95D-06 DE=-3.08D-09 OVMax= 4.24D-06

 Cycle   9  Pass 1  IDiag  1:
 E= -76.4209464996777     Delta-E=       -0.000000000070 Rises=F Damp=F
 DIIS: error= 1.05D-06 at cycle   3 NSaved=   3.
 NSaved= 3 IEnMin= 3 EnMin= -76.4209464996777     IErMin= 3 ErrMin= 1.05D-06
 ErrMax= 1.05D-06  0.00D+00 EMaxC= 1.00D-01 BMatC= 3.30D-11 BMatP= 7.79D-11
 IDIUse=1 WtCom= 1.00D+00 WtEn= 0.00D+00
 Coeff-Com: -0.423D-01 0.440D+00 0.602D+00
 Coeff:     -0.423D-01 0.440D+00 0.602D+00
 Gap=     0.497 Goal=   None    Shift=    0.000
 RMSDP=1.19D-07 MaxDP=1.68D-06 DE=-6.96D-11 OVMax= 1.87D-06

 Cycle  10  Pass 1  IDiag  1:
 E= -76.4209464996989     Delta-E=       -0.000000000021 Rises=F Damp=F
 DIIS: error= 3.54D-07 at cycle   4 NSaved=   4.
 NSaved= 4 IEnMin= 4 EnMin= -76.4209464996989     IErMin= 4 ErrMin= 3.54D-07
 ErrMax= 3.54D-07  0.00D+00 EMaxC= 1.00D-01 BMatC= 2.30D-12 BMatP= 3.30D-11
 IDIUse=1 WtCom= 1.00D+00 WtEn= 0.00D+00
 Coeff-Com: -0.945D-02 0.505D-01 0.208D+00 0.751D+00
 Coeff:     -0.945D-02 0.505D-01 0.208D+00 0.751D+00
 Gap=     0.497 Goal=   None    Shift=    0.000
 RMSDP=3.45D-08 MaxDP=3.48D-07 DE=-2.13D-11 OVMax= 4.88D-07

 Cycle  11  Pass 1  IDiag  1:
 E= -76.4209464997009     Delta-E=       -0.000000000002 Rises=F Damp=F
 DIIS: error= 4.94D-08 at cycle   5 NSaved=   5.
 NSaved= 5 IEnMin= 5 EnMin= -76.4209464997009     IErMin= 5 ErrMin= 4.94D-08
 ErrMax= 4.94D-08  0.00D+00 EMaxC= 1.00D-01 BMatC= 5.68D-14 BMatP= 2.30D-12
 IDIUse=1 WtCom= 1.00D+00 WtEn= 0.00D+00
 Coeff-Com:  0.338D-02-0.340D-01-0.534D-01-0.501D-01 0.113D+01
 Coeff:      0.338D-02-0.340D-01-0.534D-01-0.501D-01 0.113D+01
 Gap=     0.497 Goal=   None    Shift=    0.000
 RMSDP=2.12D-08 MaxDP=2.30D-07 DE=-1.92D-12 OVMax= 4.31D-07

 Cycle  12  Pass 1  IDiag  1:
 E= -76.4209464997011     Delta-E=       -0.000000000000 Rises=F Damp=F
 DIIS: error= 1.41D-08 at cycle   6 NSaved=   6.
 NSaved= 6 IEnMin= 6 EnMin= -76.4209464997011     IErMin= 6 ErrMin= 1.41D-08
 ErrMax= 1.41D-08  0.00D+00 EMaxC= 1.00D-01 BMatC= 3.60D-15 BMatP= 5.68D-14
 IDIUse=1 WtCom= 1.00D+00 WtEn= 0.00D+00
 Coeff-Com:  0.287D-03-0.710D-03-0.181D-02-0.406D-01-0.817D-01 0.112D+01
 Coeff:      0.287D-03-0.710D-03-0.181D-02-0.406D-01-0.817D-01 0.112D+01
 Gap=     0.497 Goal=   None    Shift=    0.000
 RMSDP=4.25D-09 MaxDP=3.79D-08 DE=-2.70D-13 OVMax= 8.62D-08

 SCF Done:  E(RwB97XD) =  -76.4209464997     A.U. after   12 cycles
            NFock= 12  Conv=0.43D-08     -V/T= 2.0027
 KE= 7.621431042058D+01 PE=-1.990149839650D+02 EE= 3.742957295595D+01
 Leave Link  502 at Wed Feb  8 14:41:47 2023, MaxMem=   754974720 cpu:               1.8 elap:               0.5
 (Enter /opt/cluster/programs/g16-c.01/g16/l601.exe)
 Copying SCF densities to generalized density rwf, IOpCl= 0 IROHF=0.

 **********************************************************************

            Population analysis using the SCF Density.

 **********************************************************************

 Orbital symmetries:
       Occupied  (A') (A') (A') (A') (A")
       Virtual   (A') (A') (A') (A') (A') (A") (A') (A') (A') (A")
                 (A") (A') (A') (A') (A') (A') (A") (A") (A') (A')
                 (A') (A") (A') (A') (A')
 The electronic state is 1-A'.
 Alpha  occ. eigenvalues --  -19.22995  -1.09267  -0.60058  -0.46066  -0.38444
 Alpha virt. eigenvalues --    0.11305   0.18703   0.44996   0.49851   0.85298
 Alpha virt. eigenvalues --    0.85524   0.94870   1.15828   1.34386   1.34622
 Alpha virt. eigenvalues --    1.54370   1.72217   1.98143   2.12480   2.38224
 Alpha virt. eigenvalues --    2.57232   3.16982   3.23593   3.37930   3.67029
 Alpha virt. eigenvalues --    3.89710   4.87858   5.26660   5.65926  49.95909
          Condensed to atoms (all electrons):
               1          2          3
     1  O    7.869223   0.315560   0.306370
     2  H    0.315560   0.469569  -0.030844
     3  H    0.306370  -0.030844   0.479036
 Mulliken charges:
               1
     1  O   -0.491153
     2  H    0.245715
     3  H    0.245438
 Sum of Mulliken charges =  -0.00000
 Mulliken charges with hydrogens summed into heavy atoms:
               1
     1  O   -0.000000
 Electronic spatial extent (au):  <R**2>=             19.3645
 Charge=             -0.0000 electrons
 Dipole moment (field-independent basis, Debye):
    X=              0.0432    Y=             -2.1094    Z=              0.0000  Tot=              2.1098
 Quadrupole moment (field-independent basis, Debye-Ang):
   XX=             -4.1786   YY=             -6.0333   ZZ=             -7.2255
   XY=              0.1265   XZ=              0.0000   YZ=              0.0000
 Traceless Quadrupole moment (field-independent basis, Debye-Ang):
   XX=              1.6339   YY=             -0.2208   ZZ=             -1.4130
   XY=              0.1265   XZ=              0.0000   YZ=              0.0000
 Octapole moment (field-independent basis, Debye-Ang**2):
  XXX=              0.1007  YYY=             -1.2350  ZZZ=              0.0000  XYY=             -0.0786
  XXY=             -1.3305  XXZ=              0.0000  XZZ=              0.0366  YZZ=             -0.3150
  YYZ=              0.0000  XYZ=              0.0000
 Hexadecapole moment (field-independent basis, Debye-Ang**3):
 XXXX=             -6.0255 YYYY=             -6.4272 ZZZZ=             -5.3112 XXXY=             -0.0308
 XXXZ=              0.0000 YYYX=             -0.0135 YYYZ=              0.0000 ZZZX=              0.0000
 ZZZY=              0.0000 XXYY=             -1.7072 XXZZ=             -2.1979 YYZZ=             -2.0175
 XXYZ=              0.0000 YYXZ=              0.0000 ZZXY=             -0.0408
 N-N= 8.950154088746D+00 E-N=-1.990149841343D+02  KE= 7.621431042058D+01
 Symmetry A'   KE= 7.157254370784D+01
 Symmetry A"   KE= 4.641766712734D+00
 No NMR shielding tensors so no spin-rotation constants.
 Leave Link  601 at Wed Feb  8 14:41:47 2023, MaxMem=   754974720 cpu:               0.5 elap:               0.2
 (Enter /opt/cluster/programs/g16-c.01/g16/l9999.exe)
 Unable to Open any file for archive entry.
 1\1\GINC-NODE65\SP\RwB97XD\6-311G(d,p)\H2O1\BOITTIER\08-Feb-2023\0\\#P
  wB97XD/6-311g** scf(maxcycle=200)\\Gaussian input\\0,1\O,0,0.,0.11751
 ,0.\H,0,0.7578497316,-0.4701504329,0.\H,0,-0.7977100455,-0.5003408585,
 0.\\Version=ES64L-G16RevC.01\State=1-A'\HF=-76.4209465\RMSD=4.250e-09\
 Dipole=-0.0104335,-0.8299917,0.\Quadrupole=1.2194448,-0.1688854,-1.050
 5594,0.0483186,0.,0.\PG=CS [SG(H2O1)]\\@
 The archive entry for this job was punched.


  THE LARGE PRINT GIVETH,
  AND THE SMALL PRINT TAKETH AWAY.

                     -- TOM WAITS
 Job cpu time:       0 days  0 hours  0 minutes  4.6 seconds.
 Elapsed time:       0 days  0 hours  0 minutes  1.3 seconds.
 File lengths (MBytes):  RWF=      6 Int=      0 D2E=      0 Chk=      1 Scr=      1
 Normal termination of Gaussian 16 at Wed Feb  8 14:41:47 2023.
