 Entering Gaussian System, Link 0=/opt/cluster/programs/g16-c.01/g16/g16
 Input=/scratch/boittier/jobs/tmp.7312042/gaussian_34_water_hf_adz.com
 Output=/scratch/boittier/jobs/tmp.7312042/gaussian_34_water_hf_adz.out
 Initial command:
 /opt/cluster/programs/g16-c.01/g16/l1.exe "/scratch/boittier/jobs/tmp.7312042/Gau-161401.inp" -scrdir="/scratch/boittier/jobs/tmp.7312042/"
 Entering Link 1 = /opt/cluster/programs/g16-c.01/g16/l1.exe PID=    161402.
  
 Copyright (c) 1988-2019, Gaussian, Inc.  All Rights Reserved.
  
 This is part of the Gaussian(R) 16 program.  It is based on
 the Gaussian(R) 09 system (copyright 2009, Gaussian, Inc.),
 the Gaussian(R) 03 system (copyright 2003, Gaussian, Inc.),
 the Gaussian(R) 98 system (copyright 1998, Gaussian, Inc.),
 the Gaussian(R) 94 system (copyright 1995, Gaussian, Inc.),
 the Gaussian 92(TM) system (copyright 1992, Gaussian, Inc.),
 the Gaussian 90(TM) system (copyright 1990, Gaussian, Inc.),
 the Gaussian 88(TM) system (copyright 1988, Gaussian, Inc.),
 the Gaussian 86(TM) system (copyright 1986, Carnegie Mellon
 University), and the Gaussian 82(TM) system (copyright 1983,
 Carnegie Mellon University). Gaussian is a federally registered
 trademark of Gaussian, Inc.
  
 This software contains proprietary and confidential information,
 including trade secrets, belonging to Gaussian, Inc.
  
 This software is provided under written license and may be
 used, copied, transmitted, or stored only in accord with that
 written license.
  
 The following legend is applicable only to US Government
 contracts under FAR:
  
                    RESTRICTED RIGHTS LEGEND
  
 Use, reproduction and disclosure by the US Government is
 subject to restrictions as set forth in subparagraphs (a)
 and (c) of the Commercial Computer Software - Restricted
 Rights clause in FAR 52.227-19.
  
 Gaussian, Inc.
 340 Quinnipiac St., Bldg. 40, Wallingford CT 06492
  
  
 ---------------------------------------------------------------
 Warning -- This program may not be used in any manner that
 competes with the business of Gaussian, Inc. or will provide
 assistance to any competitor of Gaussian, Inc.  The licensee
 of this program is prohibited from giving any competitor of
 Gaussian, Inc. access to this program.  By using this program,
 the user acknowledges that Gaussian, Inc. is engaged in the
 business of creating and licensing software in the field of
 computational chemistry and represents and warrants to the
 licensee that it is not a competitor of Gaussian, Inc. and that
 it will not use this program in any manner prohibited above.
 ---------------------------------------------------------------
  

 Cite this work as:
 Gaussian 16, Revision C.01,
 M. J. Frisch, G. W. Trucks, H. B. Schlegel, G. E. Scuseria, 
 M. A. Robb, J. R. Cheeseman, G. Scalmani, V. Barone, 
 G. A. Petersson, H. Nakatsuji, X. Li, M. Caricato, A. V. Marenich, 
 J. Bloino, B. G. Janesko, R. Gomperts, B. Mennucci, H. P. Hratchian, 
 J. V. Ortiz, A. F. Izmaylov, J. L. Sonnenberg, D. Williams-Young, 
 F. Ding, F. Lipparini, F. Egidi, J. Goings, B. Peng, A. Petrone, 
 T. Henderson, D. Ranasinghe, V. G. Zakrzewski, J. Gao, N. Rega, 
 G. Zheng, W. Liang, M. Hada, M. Ehara, K. Toyota, R. Fukuda, 
 J. Hasegawa, M. Ishida, T. Nakajima, Y. Honda, O. Kitao, H. Nakai, 
 T. Vreven, K. Throssell, J. A. Montgomery, Jr., J. E. Peralta, 
 F. Ogliaro, M. J. Bearpark, J. J. Heyd, E. N. Brothers, K. N. Kudin, 
 V. N. Staroverov, T. A. Keith, R. Kobayashi, J. Normand, 
 K. Raghavachari, A. P. Rendell, J. C. Burant, S. S. Iyengar, 
 J. Tomasi, M. Cossi, J. M. Millam, M. Klene, C. Adamo, R. Cammi, 
 J. W. Ochterski, R. L. Martin, K. Morokuma, O. Farkas, 
 J. B. Foresman, and D. J. Fox, Gaussian, Inc., Wallingford CT, 2019.
 
 ******************************************
 Gaussian 16:  ES64L-G16RevC.01  3-Jul-2019
                20-Feb-2023 
 ******************************************
 %nproc=4
 Will use up to    4 processors via shared memory.
 %mem=5760MB
 %chk=gaussian_34_water_hf_adz.chk
 -----------------------------------
 #P HF/aug-cc-pVDZ scf(maxcycle=200)
 -----------------------------------
 1/38=1,172=1/1;
 2/12=2,17=6,18=5,40=1/2;
 3/5=16,7=10,11=9,25=1,30=1/1,2,3;
 4//1;
 5/5=2,7=200,38=5/2;
 6/7=2,8=2,9=2,10=2,28=1/1;
 99/5=1,9=1/99;
 Leave Link    1 at Mon Feb 20 10:27:04 2023, MaxMem=   754974720 cpu:               0.1 elap:               0.1
 (Enter /opt/cluster/programs/g16-c.01/g16/l101.exe)
 --------------
 Gaussian input
 --------------
 Symbolic Z-matrix:
 Charge =  0 Multiplicity = 1
 O                     0.        0.11751   0. 
 H                     0.71834  -0.43951   0. 
 H                    -0.83253  -0.35849   0. 
 
 ITRead=  0  0  0
 MicOpt= -1 -1 -1
 NAtoms=      3 NQM=        3 NQMF=       0 NMMI=      0 NMMIF=      0
                NMic=       0 NMicF=      0.
                    Isotopes and Nuclear Properties:
 (Nuclear quadrupole moments (NQMom) in fm**2, nuclear magnetic moments (NMagM)
  in nuclear magnetons)

  Atom         1           2           3
 IAtWgt=          16           1           1
 AtmWgt=  15.9949146   1.0078250   1.0078250
 NucSpn=           0           1           1
 AtZEff=  -0.0000000  -0.0000000  -0.0000000
 NQMom=    0.0000000   0.0000000   0.0000000
 NMagM=    0.0000000   2.7928460   2.7928460
 AtZNuc=   8.0000000   1.0000000   1.0000000
 Leave Link  101 at Mon Feb 20 10:27:04 2023, MaxMem=   754974720 cpu:               1.0 elap:               0.4
 (Enter /opt/cluster/programs/g16-c.01/g16/l202.exe)
                          Input orientation:                          
 ---------------------------------------------------------------------
 Center     Atomic      Atomic             Coordinates (Angstroms)
 Number     Number       Type             X           Y           Z
 ---------------------------------------------------------------------
      1          8           0        0.000000    0.117510    0.000000
      2          1           0        0.718337   -0.439511    0.000000
      3          1           0       -0.832529   -0.358491    0.000000
 ---------------------------------------------------------------------
                    Distance matrix (angstroms):
                    1          2          3
     1  O    0.000000
     2  H    0.909000   0.000000
     3  H    0.959000   1.552981   0.000000
 Stoichiometry    H2O
 Framework group  CS[SG(H2O)]
 Deg. of freedom     3
 Full point group                 CS      NOp   2
 Largest Abelian subgroup         CS      NOp   2
 Largest concise Abelian subgroup C1      NOp   1
                         Standard orientation:                         
 ---------------------------------------------------------------------
 Center     Atomic      Atomic             Coordinates (Angstroms)
 Number     Number       Type             X           Y           Z
 ---------------------------------------------------------------------
      1          8           0        0.000000    0.103931    0.000000
      2          1           0        0.775189   -0.370792    0.000000
      3          1           0       -0.775189   -0.460659    0.000000
 ---------------------------------------------------------------------
 Rotational constants (GHZ):        1051.2995069         414.9290121         297.5079670
 Leave Link  202 at Mon Feb 20 10:27:04 2023, MaxMem=   754974720 cpu:               0.0 elap:               0.0
 (Enter /opt/cluster/programs/g16-c.01/g16/l301.exe)
 Standard basis: Aug-CC-pVDZ (5D, 7F)
 Ernie: Thresh=  0.10000D-02 Tol=  0.10000D-05 Strict=F.
 Ernie:  2 primitive shells out of 39 were deleted.
 There are    32 symmetry adapted cartesian basis functions of A'  symmetry.
 There are    11 symmetry adapted cartesian basis functions of A"  symmetry.
 There are    30 symmetry adapted basis functions of A'  symmetry.
 There are    11 symmetry adapted basis functions of A"  symmetry.
    41 basis functions,    65 primitive gaussians,    43 cartesian basis functions
     5 alpha electrons        5 beta electrons
       nuclear repulsion energy         9.4123829163 Hartrees.
 IExCor=    0 DFT=F Ex=HF Corr=None ExCW=0 ScaHFX=  1.000000
 ScaDFX=  1.000000  1.000000  1.000000  1.000000 ScalE2=  1.000000  1.000000
 IRadAn=      5 IRanWt=     -1 IRanGd=            0 ICorTp=0 IEmpDi=  4
 NAtoms=    3 NActive=    3 NUniq=    3 SFac= 1.00D+00 NAtFMM=   60 NAOKFM=F Big=F
 Integral buffers will be    131072 words long.
 Raffenetti 1 integral format.
 Two-electron integral symmetry is turned on.
 Leave Link  301 at Mon Feb 20 10:27:04 2023, MaxMem=   754974720 cpu:               0.3 elap:               0.1
 (Enter /opt/cluster/programs/g16-c.01/g16/l302.exe)
 NPDir=0 NMtPBC=     1 NCelOv=     1 NCel=       1 NClECP=     1 NCelD=      1
         NCelK=      1 NCelE2=     1 NClLst=     1 CellRange=     0.0.
 One-electron integrals computed using PRISM.
 One-electron integral symmetry used in STVInt
 NBasis=    41 RedAO= T EigKep=  2.63D-03  NBF=    30    11
 NBsUse=    41 1.00D-06 EigRej= -1.00D+00 NBFU=    30    11
 Leave Link  302 at Mon Feb 20 10:27:04 2023, MaxMem=   754974720 cpu:               0.4 elap:               0.1
 (Enter /opt/cluster/programs/g16-c.01/g16/l303.exe)
 DipDrv:  MaxL=1.
 Leave Link  303 at Mon Feb 20 10:27:05 2023, MaxMem=   754974720 cpu:               0.7 elap:               0.2
 (Enter /opt/cluster/programs/g16-c.01/g16/l401.exe)
 ExpMin= 2.97D-02 ExpMax= 1.17D+04 ExpMxC= 4.01D+02 IAcc=3 IRadAn=         5 AccDes= 0.00D+00
 Harris functional with IExCor=  205 and IRadAn=       5 diagonalized for initial guess.
 HarFok:  IExCor=  205 AccDes= 0.00D+00 IRadAn=         5 IDoV= 1 UseB2=F ITyADJ=14
 ICtDFT=  3500011 ScaDFX=  1.000000  1.000000  1.000000  1.000000
 FoFCou: FMM=F IPFlag=           0 FMFlag=      100000 FMFlg1=           0
         NFxFlg=           0 DoJE=T BraDBF=F KetDBF=T FulRan=T
         wScrn=  0.000000 ICntrl=       500 IOpCl=  0 I1Cent=   200000004 NGrid=           0
         NMat0=    1 NMatS0=      1 NMatT0=    0 NMatD0=    1 NMtDS0=    0 NMtDT0=    0
 Petite list used in FoFCou.
 Harris En= -76.1243251658827    
 JPrj=0 DoOrth=F DoCkMO=F.
 Initial guess orbital symmetries:
       Occupied  (A') (A') (A') (A') (A")
       Virtual   (A') (A') (A') (A") (A') (A') (A') (A') (A") (A')
                 (A") (A') (A') (A') (A') (A') (A") (A') (A") (A')
                 (A") (A') (A') (A') (A") (A") (A') (A') (A') (A')
                 (A') (A") (A') (A") (A') (A')
 The electronic state of the initial guess is 1-A'.
 Leave Link  401 at Mon Feb 20 10:27:05 2023, MaxMem=   754974720 cpu:               0.5 elap:               0.1
 (Enter /opt/cluster/programs/g16-c.01/g16/l502.exe)
 Keep R1 ints in memory in symmetry-blocked form, NReq=1210696.
 FoFCou: FMM=F IPFlag=           0 FMFlag=           0 FMFlg1=           0
         NFxFlg=           0 DoJE=F BraDBF=F KetDBF=F FulRan=T
         wScrn=  0.000000 ICntrl=       600 IOpCl=  0 I1Cent=           0 NGrid=           0
         NMat0=    1 NMatS0=    861 NMatT0=    0 NMatD0=    1 NMtDS0=    0 NMtDT0=    0
 Petite list used in FoFCou.
 Closed shell SCF:
 Using DIIS extrapolation, IDIIS=  1040.
 NGot=   754974720 LenX=   754771907 LenY=   754769617
 Requested convergence on RMS density matrix=1.00D-08 within 200 cycles.
 Requested convergence on MAX density matrix=1.00D-06.
 Requested convergence on             energy=1.00D-06.
 No special actions if energy rises.

 Cycle   1  Pass 1  IDiag  1:
 E= -75.9591175882120    
 DIIS: error= 5.25D-02 at cycle   1 NSaved=   1.
 NSaved= 1 IEnMin= 1 EnMin= -75.9591175882120     IErMin= 1 ErrMin= 5.25D-02
 ErrMax= 5.25D-02  0.00D+00 EMaxC= 1.00D-01 BMatC= 1.23D-01 BMatP= 1.23D-01
 IDIUse=3 WtCom= 4.75D-01 WtEn= 5.25D-01
 Coeff-Com:  0.100D+01
 Coeff-En:   0.100D+01
 Coeff:      0.100D+01
 Gap=     0.455 Goal=   None    Shift=    0.000
 GapD=    0.455 DampG=2.000 DampE=0.500 DampFc=1.0000 IDamp=-1.
 RMSDP=6.43D-03 MaxDP=1.22D-01              OVMax= 1.20D-01

 Cycle   2  Pass 1  IDiag  1:
 E= -76.0073145470091     Delta-E=       -0.048196958797 Rises=F Damp=F
 DIIS: error= 3.93D-02 at cycle   2 NSaved=   2.
 NSaved= 2 IEnMin= 2 EnMin= -76.0073145470091     IErMin= 2 ErrMin= 3.93D-02
 ErrMax= 3.93D-02  0.00D+00 EMaxC= 1.00D-01 BMatC= 4.56D-02 BMatP= 1.23D-01
 IDIUse=3 WtCom= 6.07D-01 WtEn= 3.93D-01
 Coeff-Com:  0.368D+00 0.632D+00
 Coeff-En:   0.190D+00 0.810D+00
 Coeff:      0.298D+00 0.702D+00
 Gap=     0.564 Goal=   None    Shift=    0.000
 RMSDP=2.93D-03 MaxDP=5.47D-02 DE=-4.82D-02 OVMax= 5.88D-02

 Cycle   3  Pass 1  IDiag  1:
 E= -76.0382349759027     Delta-E=       -0.030920428894 Rises=F Damp=F
 DIIS: error= 4.99D-03 at cycle   3 NSaved=   3.
 NSaved= 3 IEnMin= 3 EnMin= -76.0382349759027     IErMin= 3 ErrMin= 4.99D-03
 ErrMax= 4.99D-03  0.00D+00 EMaxC= 1.00D-01 BMatC= 1.22D-03 BMatP= 4.56D-02
 IDIUse=3 WtCom= 9.50D-01 WtEn= 4.99D-02
 Coeff-Com: -0.366D-01 0.966D-01 0.940D+00
 Coeff-En:   0.000D+00 0.000D+00 0.100D+01
 Coeff:     -0.348D-01 0.918D-01 0.943D+00
 Gap=     0.544 Goal=   None    Shift=    0.000
 RMSDP=4.79D-04 MaxDP=8.17D-03 DE=-3.09D-02 OVMax= 8.88D-03

 Cycle   4  Pass 1  IDiag  1:
 E= -76.0391296329736     Delta-E=       -0.000894657071 Rises=F Damp=F
 DIIS: error= 5.36D-04 at cycle   4 NSaved=   4.
 NSaved= 4 IEnMin= 4 EnMin= -76.0391296329736     IErMin= 4 ErrMin= 5.36D-04
 ErrMax= 5.36D-04  0.00D+00 EMaxC= 1.00D-01 BMatC= 6.31D-06 BMatP= 1.22D-03
 IDIUse=3 WtCom= 9.95D-01 WtEn= 5.36D-03
 Coeff-Com:  0.882D-02-0.437D-01-0.325D+00 0.136D+01
 Coeff-En:   0.000D+00 0.000D+00 0.000D+00 0.100D+01
 Coeff:      0.877D-02-0.435D-01-0.323D+00 0.136D+01
 Gap=     0.545 Goal=   None    Shift=    0.000
 RMSDP=1.07D-04 MaxDP=9.43D-04 DE=-8.95D-04 OVMax= 2.17D-03

 Cycle   5  Pass 1  IDiag  1:
 E= -76.0391447745175     Delta-E=       -0.000015141544 Rises=F Damp=F
 DIIS: error= 1.41D-04 at cycle   5 NSaved=   5.
 NSaved= 5 IEnMin= 5 EnMin= -76.0391447745175     IErMin= 5 ErrMin= 1.41D-04
 ErrMax= 1.41D-04  0.00D+00 EMaxC= 1.00D-01 BMatC= 2.51D-07 BMatP= 6.31D-06
 IDIUse=3 WtCom= 9.99D-01 WtEn= 1.41D-03
 Coeff-Com: -0.430D-03 0.479D-02 0.333D-01-0.306D+00 0.127D+01
 Coeff-En:   0.000D+00 0.000D+00 0.000D+00 0.000D+00 0.100D+01
 Coeff:     -0.429D-03 0.479D-02 0.333D-01-0.306D+00 0.127D+01
 Gap=     0.546 Goal=   None    Shift=    0.000
 RMSDP=2.45D-05 MaxDP=3.14D-04 DE=-1.51D-05 OVMax= 5.47D-04

 Cycle   6  Pass 1  IDiag  1:
 E= -76.0391455329846     Delta-E=       -0.000000758467 Rises=F Damp=F
 DIIS: error= 2.59D-05 at cycle   6 NSaved=   6.
 NSaved= 6 IEnMin= 6 EnMin= -76.0391455329846     IErMin= 6 ErrMin= 2.59D-05
 ErrMax= 2.59D-05  0.00D+00 EMaxC= 1.00D-01 BMatC= 9.08D-09 BMatP= 2.51D-07
 IDIUse=1 WtCom= 1.00D+00 WtEn= 0.00D+00
 Coeff-Com: -0.304D-03 0.121D-02 0.907D-02-0.165D-01-0.201D+00 0.121D+01
 Coeff:     -0.304D-03 0.121D-02 0.907D-02-0.165D-01-0.201D+00 0.121D+01
 Gap=     0.546 Goal=   None    Shift=    0.000
 RMSDP=4.01D-06 MaxDP=7.18D-05 DE=-7.58D-07 OVMax= 1.11D-04

 Cycle   7  Pass 1  IDiag  1:
 E= -76.0391455614086     Delta-E=       -0.000000028424 Rises=F Damp=F
 DIIS: error= 6.15D-06 at cycle   7 NSaved=   7.
 NSaved= 7 IEnMin= 7 EnMin= -76.0391455614086     IErMin= 7 ErrMin= 6.15D-06
 ErrMax= 6.15D-06  0.00D+00 EMaxC= 1.00D-01 BMatC= 5.15D-10 BMatP= 9.08D-09
 IDIUse=1 WtCom= 1.00D+00 WtEn= 0.00D+00
 Coeff-Com:  0.128D-03-0.678D-03-0.515D-02 0.241D-01-0.324D-02-0.377D+00
 Coeff-Com:  0.136D+01
 Coeff:      0.128D-03-0.678D-03-0.515D-02 0.241D-01-0.324D-02-0.377D+00
 Coeff:      0.136D+01
 Gap=     0.546 Goal=   None    Shift=    0.000
 RMSDP=8.58D-07 MaxDP=1.71D-05 DE=-2.84D-08 OVMax= 2.52D-05

 Cycle   8  Pass 1  IDiag  1:
 E= -76.0391455627815     Delta-E=       -0.000000001373 Rises=F Damp=F
 DIIS: error= 6.91D-07 at cycle   8 NSaved=   8.
 NSaved= 8 IEnMin= 8 EnMin= -76.0391455627815     IErMin= 8 ErrMin= 6.91D-07
 ErrMax= 6.91D-07  0.00D+00 EMaxC= 1.00D-01 BMatC= 1.35D-11 BMatP= 5.15D-10
 IDIUse=1 WtCom= 1.00D+00 WtEn= 0.00D+00
 Coeff-Com: -0.175D-04 0.107D-03 0.857D-03-0.518D-02 0.830D-02 0.500D-01
 Coeff-Com: -0.343D+00 0.129D+01
 Coeff:     -0.175D-04 0.107D-03 0.857D-03-0.518D-02 0.830D-02 0.500D-01
 Coeff:     -0.343D+00 0.129D+01
 Gap=     0.546 Goal=   None    Shift=    0.000
 RMSDP=1.72D-07 MaxDP=2.44D-06 DE=-1.37D-09 OVMax= 3.47D-06

 Cycle   9  Pass 1  IDiag  1:
 E= -76.0391455628144     Delta-E=       -0.000000000033 Rises=F Damp=F
 DIIS: error= 8.29D-08 at cycle   9 NSaved=   9.
 NSaved= 9 IEnMin= 9 EnMin= -76.0391455628144     IErMin= 9 ErrMin= 8.29D-08
 ErrMax= 8.29D-08  0.00D+00 EMaxC= 1.00D-01 BMatC= 2.03D-13 BMatP= 1.35D-11
 IDIUse=1 WtCom= 1.00D+00 WtEn= 0.00D+00
 Coeff-Com: -0.285D-05 0.145D-04 0.104D-03-0.386D-03-0.472D-03 0.769D-02
 Coeff-Com: -0.156D-01-0.758D-01 0.108D+01
 Coeff:     -0.285D-05 0.145D-04 0.104D-03-0.386D-03-0.472D-03 0.769D-02
 Coeff:     -0.156D-01-0.758D-01 0.108D+01
 Gap=     0.546 Goal=   None    Shift=    0.000
 RMSDP=2.27D-08 MaxDP=2.59D-07 DE=-3.29D-11 OVMax= 3.39D-07

 Cycle  10  Pass 1  IDiag  1:
 E= -76.0391455628150     Delta-E=       -0.000000000001 Rises=F Damp=F
 DIIS: error= 2.15D-08 at cycle  10 NSaved=  10.
 NSaved=10 IEnMin=10 EnMin= -76.0391455628150     IErMin=10 ErrMin= 2.15D-08
 ErrMax= 2.15D-08  0.00D+00 EMaxC= 1.00D-01 BMatC= 1.11D-14 BMatP= 2.03D-13
 IDIUse=1 WtCom= 1.00D+00 WtEn= 0.00D+00
 Coeff-Com:  0.991D-06-0.558D-05-0.424D-04 0.217D-03-0.114D-03-0.297D-02
 Coeff-Com:  0.136D-01-0.260D-01-0.243D+00 0.126D+01
 Coeff:      0.991D-06-0.558D-05-0.424D-04 0.217D-03-0.114D-03-0.297D-02
 Coeff:      0.136D-01-0.260D-01-0.243D+00 0.126D+01
 Gap=     0.546 Goal=   None    Shift=    0.000
 RMSDP=5.40D-09 MaxDP=5.51D-08 DE=-5.40D-13 OVMax= 7.46D-08

 SCF Done:  E(RHF) =  -76.0391455628     A.U. after   10 cycles
            NFock= 10  Conv=0.54D-08     -V/T= 2.0003
 KE= 7.601755749777D+01 PE=-1.993910907337D+02 EE= 3.792200475689D+01
 Leave Link  502 at Mon Feb 20 10:27:05 2023, MaxMem=   754974720 cpu:               0.6 elap:               0.1
 (Enter /opt/cluster/programs/g16-c.01/g16/l601.exe)
 Copying SCF densities to generalized density rwf, IOpCl= 0 IROHF=0.

 **********************************************************************

            Population analysis using the SCF Density.

 **********************************************************************

 Orbital symmetries:
       Occupied  (A') (A') (A') (A') (A")
       Virtual   (A') (A') (A') (A") (A') (A') (A') (A') (A") (A')
                 (A") (A') (A') (A') (A') (A') (A") (A') (A") (A')
                 (A') (A") (A') (A') (A") (A") (A') (A') (A') (A')
                 (A') (A") (A') (A") (A') (A')
 The electronic state is 1-A'.
 Alpha  occ. eigenvalues --  -20.56950  -1.36389  -0.74785  -0.57425  -0.50927
 Alpha virt. eigenvalues --    0.03640   0.05736   0.17423   0.19448   0.22260
 Alpha virt. eigenvalues --    0.22829   0.30111   0.32426   0.38307   0.42365
 Alpha virt. eigenvalues --    0.44987   0.53468   0.65137   0.66121   0.84528
 Alpha virt. eigenvalues --    0.91243   1.08877   1.09933   1.15102   1.36611
 Alpha virt. eigenvalues --    1.48118   1.49977   1.58889   2.00461   2.04723
 Alpha virt. eigenvalues --    2.10409   2.44862   2.50014   2.66987   2.76635
 Alpha virt. eigenvalues --    2.90739   3.66617   3.68235   3.71308   4.12416
 Alpha virt. eigenvalues --    4.34079
          Condensed to atoms (all electrons):
               1          2          3
     1  O    7.561325   0.358318   0.344498
     2  H    0.358318   0.592654  -0.053253
     3  H    0.344498  -0.053253   0.546896
 Mulliken charges:
               1
     1  O   -0.264141
     2  H    0.102281
     3  H    0.161859
 Sum of Mulliken charges =  -0.00000
 Mulliken charges with hydrogens summed into heavy atoms:
               1
     1  O   -0.000000
 Electronic spatial extent (au):  <R**2>=             19.2546
 Charge=              0.0000 electrons
 Dipole moment (field-independent basis, Debye):
    X=              0.0186    Y=             -1.8480    Z=              0.0000  Tot=              1.8481
 Quadrupole moment (field-independent basis, Debye-Ang):
   XX=             -4.0111   YY=             -6.4714   ZZ=             -7.5481
   XY=              0.1681   XZ=              0.0000   YZ=              0.0000
 Traceless Quadrupole moment (field-independent basis, Debye-Ang):
   XX=              1.9991   YY=             -0.4612   ZZ=             -1.5379
   XY=              0.1681   XZ=              0.0000   YZ=              0.0000
 Octapole moment (field-independent basis, Debye-Ang**2):
  XXX=              0.0590  YYY=             -1.0902  ZZZ=              0.0000  XYY=             -0.0962
  XXY=             -1.3200  XXZ=              0.0000  XZZ=              0.0310  YZZ=             -0.2915
  YYZ=              0.0000  XYZ=              0.0000
 Hexadecapole moment (field-independent basis, Debye-Ang**3):
 XXXX=             -5.6025 YYYY=             -7.1523 ZZZZ=             -6.7958 XXXY=              0.0330
 XXXZ=              0.0000 YYYX=             -0.0034 YYYZ=              0.0000 ZZZX=              0.0000
 ZZZY=              0.0000 XXYY=             -1.9450 XXZZ=             -2.4265 YYZZ=             -2.3594
 XXYZ=              0.0000 YYXZ=              0.0000 ZZXY=             -0.0332
 N-N= 9.412382916274D+00 E-N=-1.993910905215D+02  KE= 7.601755749777D+01
 Symmetry A'   KE= 7.158262149774D+01
 Symmetry A"   KE= 4.434936000034D+00
 No NMR shielding tensors so no spin-rotation constants.
 Leave Link  601 at Mon Feb 20 10:27:05 2023, MaxMem=   754974720 cpu:               0.3 elap:               0.1
 (Enter /opt/cluster/programs/g16-c.01/g16/l9999.exe)
 Unable to Open any file for archive entry.
 1\1\GINC-NODE106\SP\RHF\Aug-CC-pVDZ\H2O1\BOITTIER\20-Feb-2023\0\\#P HF
 /aug-cc-pVDZ scf(maxcycle=200)\\Gaussian input\\0,1\O,0,0.,0.11751,0.\
 H,0,0.7183372325,-0.4395112028,0.\H,0,-0.8325289106,-0.3584906439,0.\\
 Version=ES64L-G16RevC.01\State=1-A'\HF=-76.0391456\RMSD=5.398e-09\Dipo
 le=-0.0726155,-0.7234566,0.\Quadrupole=1.4915133,-0.3481095,-1.1434038
 ,-0.0777967,0.,0.\PG=CS [SG(H2O1)]\\@
 The archive entry for this job was punched.


 YOU KNOW YOU'RE A TEACHER WHEN YOU SAY 2, WRITE 3, AND MEAN 4.
 -- RONALD ANSTROM, HIGH SCHOOL TEACHER, UNDERWOOD, N.D. 1974
 Job cpu time:       0 days  0 hours  0 minutes  4.2 seconds.
 Elapsed time:       0 days  0 hours  0 minutes  1.4 seconds.
 File lengths (MBytes):  RWF=      6 Int=      0 D2E=      0 Chk=      1 Scr=      1
 Normal termination of Gaussian 16 at Mon Feb 20 10:27:05 2023.
