 Entering Gaussian System, Link 0=/opt/cluster/programs/g16-c.01/g16/g16
 Input=/scratch/boittier/jobs/tmp.7262294/gaussian_125_water_ccsdt_adz.com
 Output=/scratch/boittier/jobs/tmp.7262294/gaussian_125_water_ccsdt_adz.out
 Initial command:
 /opt/cluster/programs/g16-c.01/g16/l1.exe "/scratch/boittier/jobs/tmp.7262294/Gau-52486.inp" -scrdir="/scratch/boittier/jobs/tmp.7262294/"
 Entering Link 1 = /opt/cluster/programs/g16-c.01/g16/l1.exe PID=     52487.
  
 Copyright (c) 1988-2019, Gaussian, Inc.  All Rights Reserved.
  
 This is part of the Gaussian(R) 16 program.  It is based on
 the Gaussian(R) 09 system (copyright 2009, Gaussian, Inc.),
 the Gaussian(R) 03 system (copyright 2003, Gaussian, Inc.),
 the Gaussian(R) 98 system (copyright 1998, Gaussian, Inc.),
 the Gaussian(R) 94 system (copyright 1995, Gaussian, Inc.),
 the Gaussian 92(TM) system (copyright 1992, Gaussian, Inc.),
 the Gaussian 90(TM) system (copyright 1990, Gaussian, Inc.),
 the Gaussian 88(TM) system (copyright 1988, Gaussian, Inc.),
 the Gaussian 86(TM) system (copyright 1986, Carnegie Mellon
 University), and the Gaussian 82(TM) system (copyright 1983,
 Carnegie Mellon University). Gaussian is a federally registered
 trademark of Gaussian, Inc.
  
 This software contains proprietary and confidential information,
 including trade secrets, belonging to Gaussian, Inc.
  
 This software is provided under written license and may be
 used, copied, transmitted, or stored only in accord with that
 written license.
  
 The following legend is applicable only to US Government
 contracts under FAR:
  
                    RESTRICTED RIGHTS LEGEND
  
 Use, reproduction and disclosure by the US Government is
 subject to restrictions as set forth in subparagraphs (a)
 and (c) of the Commercial Computer Software - Restricted
 Rights clause in FAR 52.227-19.
  
 Gaussian, Inc.
 340 Quinnipiac St., Bldg. 40, Wallingford CT 06492
  
  
 ---------------------------------------------------------------
 Warning -- This program may not be used in any manner that
 competes with the business of Gaussian, Inc. or will provide
 assistance to any competitor of Gaussian, Inc.  The licensee
 of this program is prohibited from giving any competitor of
 Gaussian, Inc. access to this program.  By using this program,
 the user acknowledges that Gaussian, Inc. is engaged in the
 business of creating and licensing software in the field of
 computational chemistry and represents and warrants to the
 licensee that it is not a competitor of Gaussian, Inc. and that
 it will not use this program in any manner prohibited above.
 ---------------------------------------------------------------
  

 Cite this work as:
 Gaussian 16, Revision C.01,
 M. J. Frisch, G. W. Trucks, H. B. Schlegel, G. E. Scuseria, 
 M. A. Robb, J. R. Cheeseman, G. Scalmani, V. Barone, 
 G. A. Petersson, H. Nakatsuji, X. Li, M. Caricato, A. V. Marenich, 
 J. Bloino, B. G. Janesko, R. Gomperts, B. Mennucci, H. P. Hratchian, 
 J. V. Ortiz, A. F. Izmaylov, J. L. Sonnenberg, D. Williams-Young, 
 F. Ding, F. Lipparini, F. Egidi, J. Goings, B. Peng, A. Petrone, 
 T. Henderson, D. Ranasinghe, V. G. Zakrzewski, J. Gao, N. Rega, 
 G. Zheng, W. Liang, M. Hada, M. Ehara, K. Toyota, R. Fukuda, 
 J. Hasegawa, M. Ishida, T. Nakajima, Y. Honda, O. Kitao, H. Nakai, 
 T. Vreven, K. Throssell, J. A. Montgomery, Jr., J. E. Peralta, 
 F. Ogliaro, M. J. Bearpark, J. J. Heyd, E. N. Brothers, K. N. Kudin, 
 V. N. Staroverov, T. A. Keith, R. Kobayashi, J. Normand, 
 K. Raghavachari, A. P. Rendell, J. C. Burant, S. S. Iyengar, 
 J. Tomasi, M. Cossi, J. M. Millam, M. Klene, C. Adamo, R. Cammi, 
 J. W. Ochterski, R. L. Martin, K. Morokuma, O. Farkas, 
 J. B. Foresman, and D. J. Fox, Gaussian, Inc., Wallingford CT, 2019.
 
 ******************************************
 Gaussian 16:  ES64L-G16RevC.01  3-Jul-2019
                 8-Feb-2023 
 ******************************************
 %nproc=4
 Will use up to    4 processors via shared memory.
 %mem=5760MB
 %chk=gaussian_125_water_ccsdt_adz.chk
 ----------------------------------------
 #P CCSD(T)/aug-cc-pVDZ scf(maxcycle=200)
 ----------------------------------------
 1/38=1,172=1/1;
 2/12=2,17=6,18=5,40=1/2;
 3/5=16,7=10,11=9,25=1,30=1/1,2,3;
 4//1;
 5/5=2,7=200,38=5/2;
 8/6=4,9=120000,10=1/1,4;
 9/5=7,14=2/13;
 6/7=2,8=2,9=2,10=2/1;
 99/5=1,9=1/99;
 Leave Link    1 at Wed Feb  8 14:50:06 2023, MaxMem=   754974720 cpu:               0.2 elap:               0.1
 (Enter /opt/cluster/programs/g16-c.01/g16/l101.exe)
 --------------
 Gaussian input
 --------------
 Symbolic Z-matrix:
 Charge =  0 Multiplicity = 1
 O                     0.        0.11751   0. 
 H                     0.79736  -0.50079   0. 
 H                    -0.61108  -0.55544   0. 
 
 ITRead=  0  0  0
 MicOpt= -1 -1 -1
 NAtoms=      3 NQM=        3 NQMF=       0 NMMI=      0 NMMIF=      0
                NMic=       0 NMicF=      0.
                    Isotopes and Nuclear Properties:
 (Nuclear quadrupole moments (NQMom) in fm**2, nuclear magnetic moments (NMagM)
  in nuclear magnetons)

  Atom         1           2           3
 IAtWgt=          16           1           1
 AtmWgt=  15.9949146   1.0078250   1.0078250
 NucSpn=           0           1           1
 AtZEff=  -0.0000000  -0.0000000  -0.0000000
 NQMom=    0.0000000   0.0000000   0.0000000
 NMagM=    0.0000000   2.7928460   2.7928460
 AtZNuc=   8.0000000   1.0000000   1.0000000
 Leave Link  101 at Wed Feb  8 14:50:07 2023, MaxMem=   754974720 cpu:               0.8 elap:               0.4
 (Enter /opt/cluster/programs/g16-c.01/g16/l202.exe)
                          Input orientation:                          
 ---------------------------------------------------------------------
 Center     Atomic      Atomic             Coordinates (Angstroms)
 Number     Number       Type             X           Y           Z
 ---------------------------------------------------------------------
      1          8           0        0.000000    0.117510    0.000000
      2          1           0        0.797362   -0.500790    0.000000
      3          1           0       -0.611077   -0.555443    0.000000
 ---------------------------------------------------------------------
                    Distance matrix (angstroms):
                    1          2          3
     1  O    0.000000
     2  H    1.009000   0.000000
     3  H    0.909000   1.409499   0.000000
 Stoichiometry    H2O
 Framework group  CS[SG(H2O)]
 Deg. of freedom     3
 Full point group                 CS      NOp   2
 Largest Abelian subgroup         CS      NOp   2
 Largest concise Abelian subgroup C1      NOp   1
                         Standard orientation:                         
 ---------------------------------------------------------------------
 Center     Atomic      Atomic             Coordinates (Angstroms)
 Number     Number       Type             X           Y           Z
 ---------------------------------------------------------------------
      1          8           0        0.000000    0.130462    0.000000
      2          1           0        0.700906   -0.595356   -0.000000
      3          1           0       -0.700906   -0.448340    0.000000
 ---------------------------------------------------------------------
 Rotational constants (GHZ):         691.3715806         489.7904098         286.6898635
 Leave Link  202 at Wed Feb  8 14:50:07 2023, MaxMem=   754974720 cpu:               0.1 elap:               0.1
 (Enter /opt/cluster/programs/g16-c.01/g16/l301.exe)
 Standard basis: Aug-CC-pVDZ (5D, 7F)
 Ernie: Thresh=  0.10000D-02 Tol=  0.10000D-05 Strict=F.
 Ernie:  2 primitive shells out of 39 were deleted.
 There are    32 symmetry adapted cartesian basis functions of A'  symmetry.
 There are    11 symmetry adapted cartesian basis functions of A"  symmetry.
 There are    30 symmetry adapted basis functions of A'  symmetry.
 There are    11 symmetry adapted basis functions of A"  symmetry.
    41 basis functions,    65 primitive gaussians,    43 cartesian basis functions
     5 alpha electrons        5 beta electrons
       nuclear repulsion energy         9.2283182420 Hartrees.
 IExCor=    0 DFT=F Ex=HF Corr=None ExCW=0 ScaHFX=  1.000000
 ScaDFX=  1.000000  1.000000  1.000000  1.000000 ScalE2=  1.000000  1.000000
 IRadAn=      5 IRanWt=     -1 IRanGd=            0 ICorTp=0 IEmpDi=  4
 NAtoms=    3 NActive=    3 NUniq=    3 SFac= 1.00D+00 NAtFMM=   60 NAOKFM=F Big=F
 Integral buffers will be    131072 words long.
 Raffenetti 1 integral format.
 Two-electron integral symmetry is turned on.
 Leave Link  301 at Wed Feb  8 14:50:07 2023, MaxMem=   754974720 cpu:               0.3 elap:               0.2
 (Enter /opt/cluster/programs/g16-c.01/g16/l302.exe)
 NPDir=0 NMtPBC=     1 NCelOv=     1 NCel=       1 NClECP=     1 NCelD=      1
         NCelK=      1 NCelE2=     1 NClLst=     1 CellRange=     0.0.
 One-electron integrals computed using PRISM.
 One-electron integral symmetry used in STVInt
 NBasis=    41 RedAO= T EigKep=  2.15D-03  NBF=    30    11
 NBsUse=    41 1.00D-06 EigRej= -1.00D+00 NBFU=    30    11
 Leave Link  302 at Wed Feb  8 14:50:08 2023, MaxMem=   754974720 cpu:               1.7 elap:               0.9
 (Enter /opt/cluster/programs/g16-c.01/g16/l303.exe)
 DipDrv:  MaxL=1.
 Leave Link  303 at Wed Feb  8 14:50:08 2023, MaxMem=   754974720 cpu:               0.2 elap:               0.1
 (Enter /opt/cluster/programs/g16-c.01/g16/l401.exe)
 ExpMin= 2.97D-02 ExpMax= 1.17D+04 ExpMxC= 4.01D+02 IAcc=3 IRadAn=         5 AccDes= 0.00D+00
 Harris functional with IExCor=  205 and IRadAn=       5 diagonalized for initial guess.
 HarFok:  IExCor=  205 AccDes= 0.00D+00 IRadAn=         5 IDoV= 1 UseB2=F ITyADJ=14
 ICtDFT=  3500011 ScaDFX=  1.000000  1.000000  1.000000  1.000000
 FoFCou: FMM=F IPFlag=           0 FMFlag=      100000 FMFlg1=           0
         NFxFlg=           0 DoJE=T BraDBF=F KetDBF=T FulRan=T
         wScrn=  0.000000 ICntrl=       500 IOpCl=  0 I1Cent=   200000004 NGrid=           0
         NMat0=    1 NMatS0=      1 NMatT0=    0 NMatD0=    1 NMtDS0=    0 NMtDT0=    0
 Petite list used in FoFCou.
 Harris En= -76.1175831234869    
 JPrj=0 DoOrth=F DoCkMO=F.
 Initial guess orbital symmetries:
       Occupied  (A') (A') (A') (A') (A")
       Virtual   (A') (A') (A') (A") (A') (A') (A') (A') (A') (A")
                 (A") (A') (A') (A') (A') (A') (A") (A') (A") (A')
                 (A") (A') (A') (A") (A') (A") (A') (A') (A') (A')
                 (A') (A") (A') (A") (A') (A')
 The electronic state of the initial guess is 1-A'.
 Leave Link  401 at Wed Feb  8 14:50:09 2023, MaxMem=   754974720 cpu:               1.8 elap:               0.9
 (Enter /opt/cluster/programs/g16-c.01/g16/l502.exe)
 Keep R1 ints in memory in symmetry-blocked form, NReq=1210682.
 FoFCou: FMM=F IPFlag=           0 FMFlag=           0 FMFlg1=           0
         NFxFlg=           0 DoJE=F BraDBF=F KetDBF=F FulRan=T
         wScrn=  0.000000 ICntrl=       600 IOpCl=  0 I1Cent=           0 NGrid=           0
         NMat0=    1 NMatS0=    861 NMatT0=    0 NMatD0=    1 NMtDS0=    0 NMtDT0=    0
 Petite list used in FoFCou.
 Closed shell SCF:
 Using DIIS extrapolation, IDIIS=  1040.
 NGot=   754974720 LenX=   754771907 LenY=   754769617
 Requested convergence on RMS density matrix=1.00D-08 within 200 cycles.
 Requested convergence on MAX density matrix=1.00D-06.
 Requested convergence on             energy=1.00D-06.
 No special actions if energy rises.

 Cycle   1  Pass 1  IDiag  1:
 E= -75.9556603966662    
 DIIS: error= 5.05D-02 at cycle   1 NSaved=   1.
 NSaved= 1 IEnMin= 1 EnMin= -75.9556603966662     IErMin= 1 ErrMin= 5.05D-02
 ErrMax= 5.05D-02  0.00D+00 EMaxC= 1.00D-01 BMatC= 1.17D-01 BMatP= 1.17D-01
 IDIUse=3 WtCom= 4.95D-01 WtEn= 5.05D-01
 Coeff-Com:  0.100D+01
 Coeff-En:   0.100D+01
 Coeff:      0.100D+01
 Gap=     0.461 Goal=   None    Shift=    0.000
 GapD=    0.461 DampG=2.000 DampE=0.500 DampFc=1.0000 IDamp=-1.
 RMSDP=6.35D-03 MaxDP=1.17D-01              OVMax= 1.22D-01

 Cycle   2  Pass 1  IDiag  1:
 E= -76.0000637865654     Delta-E=       -0.044403389899 Rises=F Damp=F
 DIIS: error= 4.04D-02 at cycle   2 NSaved=   2.
 NSaved= 2 IEnMin= 2 EnMin= -76.0000637865654     IErMin= 2 ErrMin= 4.04D-02
 ErrMax= 4.04D-02  0.00D+00 EMaxC= 1.00D-01 BMatC= 4.64D-02 BMatP= 1.17D-01
 IDIUse=3 WtCom= 5.96D-01 WtEn= 4.04D-01
 Coeff-Com:  0.376D+00 0.624D+00
 Coeff-En:   0.216D+00 0.784D+00
 Coeff:      0.311D+00 0.689D+00
 Gap=     0.563 Goal=   None    Shift=    0.000
 RMSDP=3.00D-03 MaxDP=5.48D-02 DE=-4.44D-02 OVMax= 5.93D-02

 Cycle   3  Pass 1  IDiag  1:
 E= -76.0320061800825     Delta-E=       -0.031942393517 Rises=F Damp=F
 DIIS: error= 4.56D-03 at cycle   3 NSaved=   3.
 NSaved= 3 IEnMin= 3 EnMin= -76.0320061800825     IErMin= 3 ErrMin= 4.56D-03
 ErrMax= 4.56D-03  0.00D+00 EMaxC= 1.00D-01 BMatC= 1.16D-03 BMatP= 4.64D-02
 IDIUse=3 WtCom= 9.54D-01 WtEn= 4.56D-02
 Coeff-Com: -0.387D-01 0.907D-01 0.948D+00
 Coeff-En:   0.000D+00 0.000D+00 0.100D+01
 Coeff:     -0.370D-01 0.866D-01 0.950D+00
 Gap=     0.545 Goal=   None    Shift=    0.000
 RMSDP=4.73D-04 MaxDP=8.32D-03 DE=-3.19D-02 OVMax= 9.38D-03

 Cycle   4  Pass 1  IDiag  1:
 E= -76.0328929465589     Delta-E=       -0.000886766476 Rises=F Damp=F
 DIIS: error= 6.86D-04 at cycle   4 NSaved=   4.
 NSaved= 4 IEnMin= 4 EnMin= -76.0328929465589     IErMin= 4 ErrMin= 6.86D-04
 ErrMax= 6.86D-04  0.00D+00 EMaxC= 1.00D-01 BMatC= 7.98D-06 BMatP= 1.16D-03
 IDIUse=3 WtCom= 9.93D-01 WtEn= 6.86D-03
 Coeff-Com:  0.984D-02-0.444D-01-0.348D+00 0.138D+01
 Coeff-En:   0.000D+00 0.000D+00 0.000D+00 0.100D+01
 Coeff:      0.977D-02-0.441D-01-0.345D+00 0.138D+01
 Gap=     0.546 Goal=   None    Shift=    0.000
 RMSDP=1.15D-04 MaxDP=1.24D-03 DE=-8.87D-04 OVMax= 2.24D-03

 Cycle   5  Pass 1  IDiag  1:
 E= -76.0329128143529     Delta-E=       -0.000019867794 Rises=F Damp=F
 DIIS: error= 1.79D-04 at cycle   5 NSaved=   5.
 NSaved= 5 IEnMin= 5 EnMin= -76.0329128143529     IErMin= 5 ErrMin= 1.79D-04
 ErrMax= 1.79D-04  0.00D+00 EMaxC= 1.00D-01 BMatC= 3.32D-07 BMatP= 7.98D-06
 IDIUse=3 WtCom= 9.98D-01 WtEn= 1.79D-03
 Coeff-Com: -0.683D-03 0.581D-02 0.436D-01-0.335D+00 0.129D+01
 Coeff-En:   0.000D+00 0.000D+00 0.000D+00 0.000D+00 0.100D+01
 Coeff:     -0.682D-03 0.580D-02 0.435D-01-0.334D+00 0.129D+01
 Gap=     0.547 Goal=   None    Shift=    0.000
 RMSDP=2.59D-05 MaxDP=4.04D-04 DE=-1.99D-05 OVMax= 5.53D-04

 Cycle   6  Pass 1  IDiag  1:
 E= -76.0329137874085     Delta-E=       -0.000000973056 Rises=F Damp=F
 DIIS: error= 2.99D-05 at cycle   6 NSaved=   6.
 NSaved= 6 IEnMin= 6 EnMin= -76.0329137874085     IErMin= 6 ErrMin= 2.99D-05
 ErrMax= 2.99D-05  0.00D+00 EMaxC= 1.00D-01 BMatC= 1.16D-08 BMatP= 3.32D-07
 IDIUse=1 WtCom= 1.00D+00 WtEn= 0.00D+00
 Coeff-Com: -0.347D-03 0.127D-02 0.976D-02-0.181D-01-0.196D+00 0.120D+01
 Coeff:     -0.347D-03 0.127D-02 0.976D-02-0.181D-01-0.196D+00 0.120D+01
 Gap=     0.547 Goal=   None    Shift=    0.000
 RMSDP=4.40D-06 MaxDP=8.38D-05 DE=-9.73D-07 OVMax= 1.11D-04

 Cycle   7  Pass 1  IDiag  1:
 E= -76.0329138213894     Delta-E=       -0.000000033981 Rises=F Damp=F
 DIIS: error= 5.47D-06 at cycle   7 NSaved=   7.
 NSaved= 7 IEnMin= 7 EnMin= -76.0329138213894     IErMin= 7 ErrMin= 5.47D-06
 ErrMax= 5.47D-06  0.00D+00 EMaxC= 1.00D-01 BMatC= 5.55D-10 BMatP= 1.16D-08
 IDIUse=1 WtCom= 1.00D+00 WtEn= 0.00D+00
 Coeff-Com:  0.130D-03-0.646D-03-0.519D-02 0.244D-01-0.196D-01-0.279D+00
 Coeff-Com:  0.128D+01
 Coeff:      0.130D-03-0.646D-03-0.519D-02 0.244D-01-0.196D-01-0.279D+00
 Coeff:      0.128D+01
 Gap=     0.547 Goal=   None    Shift=    0.000
 RMSDP=8.70D-07 MaxDP=1.35D-05 DE=-3.40D-08 OVMax= 2.27D-05

 Cycle   8  Pass 1  IDiag  1:
 E= -76.0329138226918     Delta-E=       -0.000000001302 Rises=F Damp=F
 DIIS: error= 6.50D-07 at cycle   8 NSaved=   8.
 NSaved= 8 IEnMin= 8 EnMin= -76.0329138226918     IErMin= 8 ErrMin= 6.50D-07
 ErrMax= 6.50D-07  0.00D+00 EMaxC= 1.00D-01 BMatC= 1.40D-11 BMatP= 5.55D-10
 IDIUse=1 WtCom= 1.00D+00 WtEn= 0.00D+00
 Coeff-Com: -0.211D-04 0.118D-03 0.999D-03-0.569D-02 0.107D-01 0.391D-01
 Coeff-Com: -0.354D+00 0.131D+01
 Coeff:     -0.211D-04 0.118D-03 0.999D-03-0.569D-02 0.107D-01 0.391D-01
 Coeff:     -0.354D+00 0.131D+01
 Gap=     0.547 Goal=   None    Shift=    0.000
 RMSDP=1.87D-07 MaxDP=2.36D-06 DE=-1.30D-09 OVMax= 3.57D-06

 Cycle   9  Pass 1  IDiag  1:
 E= -76.0329138227281     Delta-E=       -0.000000000036 Rises=F Damp=F
 DIIS: error= 1.04D-07 at cycle   9 NSaved=   9.
 NSaved= 9 IEnMin= 9 EnMin= -76.0329138227281     IErMin= 9 ErrMin= 1.04D-07
 ErrMax= 1.04D-07  0.00D+00 EMaxC= 1.00D-01 BMatC= 3.93D-13 BMatP= 1.40D-11
 IDIUse=1 WtCom= 1.00D+00 WtEn= 0.00D+00
 Coeff-Com: -0.155D-05 0.649D-05 0.362D-04 0.345D-05-0.982D-03 0.370D-02
 Coeff-Com:  0.132D-01-0.193D+00 0.118D+01
 Coeff:     -0.155D-05 0.649D-05 0.362D-04 0.345D-05-0.982D-03 0.370D-02
 Coeff:      0.132D-01-0.193D+00 0.118D+01
 Gap=     0.547 Goal=   None    Shift=    0.000
 RMSDP=2.98D-08 MaxDP=3.30D-07 DE=-3.64D-11 OVMax= 4.92D-07

 Cycle  10  Pass 1  IDiag  1:
 E= -76.0329138227289     Delta-E=       -0.000000000001 Rises=F Damp=F
 DIIS: error= 2.64D-08 at cycle  10 NSaved=  10.
 NSaved=10 IEnMin=10 EnMin= -76.0329138227289     IErMin=10 ErrMin= 2.64D-08
 ErrMax= 2.64D-08  0.00D+00 EMaxC= 1.00D-01 BMatC= 2.45D-14 BMatP= 3.93D-13
 IDIUse=1 WtCom= 1.00D+00 WtEn= 0.00D+00
 Coeff-Com:  0.128D-05-0.677D-05-0.524D-04 0.250D-03-0.219D-03-0.262D-02
 Coeff-Com:  0.130D-01-0.181D-01-0.303D+00 0.131D+01
 Coeff:      0.128D-05-0.677D-05-0.524D-04 0.250D-03-0.219D-03-0.262D-02
 Coeff:      0.130D-01-0.181D-01-0.303D+00 0.131D+01
 Gap=     0.547 Goal=   None    Shift=    0.000
 RMSDP=8.65D-09 MaxDP=9.18D-08 DE=-8.10D-13 OVMax= 1.74D-07

 SCF Done:  E(RHF) =  -76.0329138227     A.U. after   10 cycles
            NFock= 10  Conv=0.86D-08     -V/T= 2.0010
 KE= 7.595334701832D+01 PE=-1.989512764871D+02 EE= 3.773669740408D+01
 Leave Link  502 at Wed Feb  8 14:50:09 2023, MaxMem=   754974720 cpu:               0.7 elap:               0.2
 (Enter /opt/cluster/programs/g16-c.01/g16/l801.exe)
 Windowed orbitals will be sorted by symmetry type.
 ExpMin= 2.97D-02 ExpMax= 1.17D+04 ExpMxC= 4.01D+02 IAcc=3 IRadAn=         5 AccDes= 0.00D+00
 HarFok:  IExCor=  205 AccDes= 0.00D+00 IRadAn=         5 IDoV=-2 UseB2=F ITyADJ=14
 ICtDFT= 12500011 ScaDFX=  1.000000  1.000000  1.000000  1.000000
 Largest valence mixing into a core orbital is  6.19D-05
 Largest core mixing into a valence orbital is  1.73D-05
 Range of M.O.s used for correlation:     2    41
 NBasis=    41 NAE=     5 NBE=     5 NFC=     1 NFV=     0
 NROrb=     40 NOA=     4 NOB=     4 NVA=    36 NVB=    36

 **** Warning!!: The largest alpha MO coefficient is  0.11074156D+02

 Leave Link  801 at Wed Feb  8 14:50:09 2023, MaxMem=   754974720 cpu:               0.6 elap:               0.3
 (Enter /opt/cluster/programs/g16-c.01/g16/l804.exe)
 Closed-shell transformation, MDV=   754974720 ITran=4 ISComp=2.
 Unit  1 TFree=         57024 TCopy=        242858.
 Semi-Direct transformation.
 ModeAB=           2 MOrb=             4 LenV=     754769647
 LASXX=        60334 LTotXX=       60334 LenRXX=       60334
 LTotAB=       65632 MaxLAS=      151360 LenRXY=      151360
 NonZer=      159520 LenScr=      785920 LnRSAI=           0
 LnScr1=           0 LExtra=           0 Total=       997614
 MaxDsk=          -1 SrtSym=           F ITran=            4
 DoSDTr:  NPSUse=  4
 JobTyp=0 Pass  1:  I=   1 to   4.
 (rs|ai) integrals will be sorted in core.
 Complete sort for first half transformation.
 First half transformation complete.
 Complete sort for second half transformation.
 Second half transformation complete.
 Spin components of T(2) and E(2):
     alpha-alpha T2 =       0.7792993820D-02 E2=     -0.2805176046D-01
     alpha-beta  T2 =       0.4410252211D-01 E2=     -0.1642399605D+00
     beta-beta   T2 =       0.7792993820D-02 E2=     -0.2805176046D-01
 ANorm=    0.1029411730D+01
 E2 =    -0.2203434814D+00 EUMP2 =    -0.76253257304102D+02
 Leave Link  804 at Wed Feb  8 14:50:10 2023, MaxMem=   754974720 cpu:               0.4 elap:               0.1
 (Enter /opt/cluster/programs/g16-c.01/g16/l913.exe)
 CIDS:  MDV=   754974720.
 Frozen-core window:  NFC=   1 NFV=   0.
 IFCWin=0 IBDFC=1 NFBD=     0     0 NFCmp=     0     0 NFFFC=     0     0
 Using DD3R+UMP44R for 1st iteration.
 Using DD4RQ for 2nd and later iterations.
 Keep R2 and R3 ints in memory in symmetry-blocked form, NReq=1234051.
 FoFCou: FMM=F IPFlag=           0 FMFlag=           0 FMFlg1=           0
         NFxFlg=           0 DoJE=F BraDBF=F KetDBF=F FulRan=T
         wScrn=  0.000000 ICntrl=       600 IOpCl=  0 I1Cent=           0 NGrid=           0
         NMat0=    1 NMatS0=    861 NMatT0=    0 NMatD0=    1 NMtDS0=    0 NMtDT0=    0
 Petite list used in FoFCou.
 CIDS: In Core Option IDoMem=           1.
 CCSD(T)
 =======
 Iterations=  50 Convergence= 0.100D-06
 Produce multiple copies of IABC intergrals
 Iteration Nr.   1
 **********************
 DD1Dir will call FoFMem   1 times, MxPair=        20
 NAB=    10 NAA=     0 NBB=     0.
 MP4(R+Q)=  0.25337871D-02
 Maximum subspace dimension=  5
 A-vector RMS=  5.4437476D-03 Max=  1.7059244D-02 conv= 1.00D-05.
 RLE energy=       -0.2223049048
 E3=       -0.45673896D-02        EUMP3=      -0.76257824694D+02
 E4(DQ)=   -0.15029676D-02        UMP4(DQ)=   -0.76259327661D+02
 E4(SDQ)=  -0.32880758D-02        UMP4(SDQ)=  -0.76261112769D+02
 VARIATIONAL ENERGIES WITH THE FIRST-ORDER WAVEFUNCTION:
 DE(Corr)= -0.22228764     E(Corr)=     -76.255201458    
 NORM(A)=   0.10303726D+01
 Iteration Nr.   2
 **********************
 DD1Dir will call FoFMem   1 times, MxPair=        20
 NAB=    10 NAA=     0 NBB=     0.
 A-vector RMS=  6.5050508D-04 Max=  3.0125612D-03 conv= 1.00D-05.
 RLE energy=       -0.2275716389
 DE(Corr)= -0.22695211     E(CORR)=     -76.259865936     Delta=-4.66D-03
 NORM(A)=   0.10326333D+01
 Iteration Nr.   3
 **********************
 DD1Dir will call FoFMem   1 times, MxPair=        20
 NAB=    10 NAA=     0 NBB=     0.
 A-vector RMS=  7.4998481D-04 Max=  2.8617060D-03 conv= 1.00D-05.
 RLE energy=       -0.2279544147
 DE(Corr)= -0.22752114     E(CORR)=     -76.260434963     Delta=-5.69D-04
 NORM(A)=   0.10331727D+01
 Iteration Nr.   4
 **********************
 DD1Dir will call FoFMem   1 times, MxPair=        20
 NAB=    10 NAA=     0 NBB=     0.
 A-vector RMS=  9.7561983D-05 Max=  3.6277718D-04 conv= 1.00D-05.
 RLE energy=       -0.2279938778
 DE(Corr)= -0.22796254     E(CORR)=     -76.260876363     Delta=-4.41D-04
 NORM(A)=   0.10332916D+01
 Iteration Nr.   5
 **********************
 DD1Dir will call FoFMem   1 times, MxPair=        20
 NAB=    10 NAA=     0 NBB=     0.
 A-vector RMS=  3.7500715D-05 Max=  1.6119489D-04 conv= 1.00D-05.
 RLE energy=       -0.2280000787
 DE(Corr)= -0.22799623     E(CORR)=     -76.260910056     Delta=-3.37D-05
 NORM(A)=   0.10333101D+01
 Iteration Nr.   6
 **********************
 DD1Dir will call FoFMem   1 times, MxPair=        20
 NAB=    10 NAA=     0 NBB=     0.
 A-vector RMS=  1.0529312D-05 Max=  4.2735817D-05 conv= 1.00D-05.
 RLE energy=       -0.2279973153
 DE(Corr)= -0.22799849     E(CORR)=     -76.260912313     Delta=-2.26D-06
 NORM(A)=   0.10333118D+01
 Iteration Nr.   7
 **********************
 DD1Dir will call FoFMem   1 times, MxPair=        20
 NAB=    10 NAA=     0 NBB=     0.
 A-vector RMS=  3.7373114D-06 Max=  1.2153847D-05 conv= 1.00D-05.
 RLE energy=       -0.2279978522
 DE(Corr)= -0.22799851     E(CORR)=     -76.260912329     Delta=-1.64D-08
 NORM(A)=   0.10333123D+01
 Iteration Nr.   8
 **********************
 DD1Dir will call FoFMem   1 times, MxPair=        20
 NAB=    10 NAA=     0 NBB=     0.
 A-vector RMS=  1.2562984D-06 Max=  5.3496838D-06 conv= 1.00D-05.
 RLE energy=       -0.2279980946
 DE(Corr)= -0.22799818     E(CORR)=     -76.260912000     Delta= 3.29D-07
 NORM(A)=   0.10333127D+01
 Iteration Nr.   9
 **********************
 DD1Dir will call FoFMem   1 times, MxPair=        20
 NAB=    10 NAA=     0 NBB=     0.
 A-vector RMS=  2.8603408D-07 Max=  1.0469268D-06 conv= 1.00D-05.
 RLE energy=       -0.2279983039
 DE(Corr)= -0.22799831     E(CORR)=     -76.260912136     Delta=-1.36D-07
 NORM(A)=   0.10333129D+01
 Iteration Nr.  10
 **********************
 DD1Dir will call FoFMem   1 times, MxPair=        20
 NAB=    10 NAA=     0 NBB=     0.
 A-vector RMS=  1.3664020D-07 Max=  3.9657837D-07 conv= 1.00D-05.
 RLE energy=       -0.2279983420
 DE(Corr)= -0.22799832     E(CORR)=     -76.260912148     Delta=-1.19D-08
 NORM(A)=   0.10333129D+01
 CI/CC converged in   10 iterations to DelEn=-1.19D-08 Conv= 1.00D-07 ErrA1= 1.37D-07 Conv= 1.00D-05
 Wavefunction amplitudes converged. E(Corr)=     -76.260912148    
 Largest amplitude= 3.49D-02
 IPart=  4 IA=    3   10.95% done.
 IPart=  2 IA=    5   21.27% done.
 IPart=  2 IA=    7   30.95% done.
 IPart=  4 IA=    9   40.00% done.
 IPart=  2 IA=   12   52.38% done.
 IPart=  3 IA=   15   63.33% done.
 IPart=  3 IA=   18   72.86% done.
 IPart=  2 IA=   21   80.95% done.
 IPart=  4 IA=   26   91.27% done.
 Time for triples=        0.58 seconds.
 T4(CCSD)= -0.57154143D-02
 T5(CCSD)=  0.40800269D-03
 CCSD(T)= -0.76266219559D+02
 Discarding MO integrals.
 Leave Link  913 at Wed Feb  8 14:50:34 2023, MaxMem=   754974720 cpu:              49.5 elap:              24.8
 (Enter /opt/cluster/programs/g16-c.01/g16/l601.exe)
 Copying SCF densities to generalized density rwf, IOpCl= 0 IROHF=0.

 **********************************************************************

            Population analysis using the SCF Density.

 **********************************************************************

 Orbital symmetries:
       Occupied  (A') (A') (A') (A') (A")
       Virtual   (A') (A') (A') (A") (A') (A') (A') (A') (A') (A")
                 (A") (A') (A') (A') (A') (A') (A") (A') (A") (A')
                 (A') (A") (A') (A") (A') (A") (A') (A') (A') (A')
                 (A') (A") (A') (A") (A') (A')
 The electronic state is 1-A'.
 Alpha  occ. eigenvalues --  -20.58125  -1.36588  -0.69867  -0.60413  -0.51233
 Alpha virt. eigenvalues --    0.03431   0.05883   0.17224   0.19779   0.22182
 Alpha virt. eigenvalues --    0.23456   0.28450   0.34845   0.38619   0.38998
 Alpha virt. eigenvalues --    0.42120   0.54886   0.63640   0.66330   0.79080
 Alpha virt. eigenvalues --    0.95968   1.10903   1.12532   1.14756   1.27667
 Alpha virt. eigenvalues --    1.44100   1.47050   1.60871   1.98797   2.02957
 Alpha virt. eigenvalues --    2.14060   2.23762   2.44740   2.64231   2.75227
 Alpha virt. eigenvalues --    3.03670   3.67447   3.70019   3.70456   3.97331
 Alpha virt. eigenvalues --    4.34197
          Condensed to atoms (all electrons):
               1          2          3
     1  O    7.627721   0.313693   0.345392
     2  H    0.313693   0.512601  -0.021460
     3  H    0.345392  -0.021460   0.584429
 Mulliken charges:
               1
     1  O   -0.286805
     2  H    0.195166
     3  H    0.091639
 Sum of Mulliken charges =  -0.00000
 Mulliken charges with hydrogens summed into heavy atoms:
               1
     1  O   -0.000000
 Electronic spatial extent (au):  <R**2>=             19.5389
 Charge=             -0.0000 electrons
 Dipole moment (field-independent basis, Debye):
    X=             -0.0576    Y=             -2.1567    Z=             -0.0000  Tot=              2.1575
 Quadrupole moment (field-independent basis, Debye-Ang):
   XX=             -4.7336   YY=             -5.9329   ZZ=             -7.5727
   XY=             -0.2137   XZ=             -0.0000   YZ=              0.0000
 Traceless Quadrupole moment (field-independent basis, Debye-Ang):
   XX=              1.3461   YY=              0.1468   ZZ=             -1.4929
   XY=             -0.2137   XZ=             -0.0000   YZ=              0.0000
 Octapole moment (field-independent basis, Debye-Ang**2):
  XXX=             -0.1605  YYY=             -1.4173  ZZZ=             -0.0000  XYY=              0.1706
  XXY=             -1.3207  XXZ=             -0.0000  XZZ=             -0.0622  YZZ=             -0.3108
  YYZ=             -0.0000  XYZ=              0.0000
 Hexadecapole moment (field-independent basis, Debye-Ang**3):
 XXXX=             -6.3079 YYYY=             -7.3611 ZZZZ=             -6.7497 XXXY=              0.0567
 XXXZ=              0.0000 YYYX=             -0.0186 YYYZ=             -0.0000 ZZZX=              0.0000
 ZZZY=             -0.0000 XXYY=             -1.8403 XXZZ=             -2.4000 YYZZ=             -2.4344
 XXYZ=              0.0000 YYXZ=             -0.0000 ZZXY=              0.0680
 N-N= 9.228318241979D+00 E-N=-1.989512762840D+02  KE= 7.595334701832D+01
 Symmetry A'   KE= 7.149687290310D+01
 Symmetry A"   KE= 4.456474115216D+00
 Leave Link  601 at Wed Feb  8 14:50:34 2023, MaxMem=   754974720 cpu:               0.1 elap:               0.0
 (Enter /opt/cluster/programs/g16-c.01/g16/l9999.exe)
 Unable to Open any file for archive entry.
 1\1\GINC-NODE63\SP\RCCSD(T)-FC\Aug-CC-pVDZ\H2O1\BOITTIER\08-Feb-2023\0
 \\#P CCSD(T)/aug-cc-pVDZ scf(maxcycle=200)\\Gaussian input\\0,1\O,0,0.
 ,0.11751,0.\H,0,0.7973622306,-0.5007896629,0.\H,0,-0.6110771525,-0.555
 4429803,0.\\Version=ES64L-G16RevC.01\State=1-A'\HF=-76.0329138\MP2=-76
 .2532573\MP3=-76.2578247\MP4D=-76.2618614\MP4DQ=-76.2593277\MP4SDQ=-76
 .2611128\CCSD=-76.2609121\CCSD(T)=-76.2662196\RMSD=8.649e-09\PG=CS [SG
 (H2O1)]\\@
 The archive entry for this job was punched.


      THE ONE-EYED VIEW OF OUR UNIVERSE SAYS YOU MUST NOT LOOK
      FAR AFIELD FOR PROBLEMS.  SUCH PROBLEMS MAY NEVER ARRIVE. 
      INSTEAD, TEND TO THE WOLF WITHIN YOUR FENCES.
      THE PACKS RANGING OUTSIDE MAY NOT EVEN EXIST.

                              -- THE AZHAR BOOK SHAMRA I:4
                                 CHILDREN OF DUNE, BY FRANK HERBERT
 Job cpu time:       0 days  0 hours  0 minutes 56.8 seconds.
 Elapsed time:       0 days  0 hours  0 minutes 28.0 seconds.
 File lengths (MBytes):  RWF=     15 Int=      0 D2E=      0 Chk=      1 Scr=      1
 Normal termination of Gaussian 16 at Wed Feb  8 14:50:34 2023.
