 Entering Gaussian System, Link 0=/opt/cluster/programs/g16-c.01/g16/g16
 Input=/scratch/boittier/jobs/tmp.7261687/gaussian_23_water_ccsdt_atz.com
 Output=/scratch/boittier/jobs/tmp.7261687/gaussian_23_water_ccsdt_atz.out
 Initial command:
 /opt/cluster/programs/g16-c.01/g16/l1.exe "/scratch/boittier/jobs/tmp.7261687/Gau-49617.inp" -scrdir="/scratch/boittier/jobs/tmp.7261687/"
 Entering Link 1 = /opt/cluster/programs/g16-c.01/g16/l1.exe PID=     49618.
  
 Copyright (c) 1988-2019, Gaussian, Inc.  All Rights Reserved.
  
 This is part of the Gaussian(R) 16 program.  It is based on
 the Gaussian(R) 09 system (copyright 2009, Gaussian, Inc.),
 the Gaussian(R) 03 system (copyright 2003, Gaussian, Inc.),
 the Gaussian(R) 98 system (copyright 1998, Gaussian, Inc.),
 the Gaussian(R) 94 system (copyright 1995, Gaussian, Inc.),
 the Gaussian 92(TM) system (copyright 1992, Gaussian, Inc.),
 the Gaussian 90(TM) system (copyright 1990, Gaussian, Inc.),
 the Gaussian 88(TM) system (copyright 1988, Gaussian, Inc.),
 the Gaussian 86(TM) system (copyright 1986, Carnegie Mellon
 University), and the Gaussian 82(TM) system (copyright 1983,
 Carnegie Mellon University). Gaussian is a federally registered
 trademark of Gaussian, Inc.
  
 This software contains proprietary and confidential information,
 including trade secrets, belonging to Gaussian, Inc.
  
 This software is provided under written license and may be
 used, copied, transmitted, or stored only in accord with that
 written license.
  
 The following legend is applicable only to US Government
 contracts under FAR:
  
                    RESTRICTED RIGHTS LEGEND
  
 Use, reproduction and disclosure by the US Government is
 subject to restrictions as set forth in subparagraphs (a)
 and (c) of the Commercial Computer Software - Restricted
 Rights clause in FAR 52.227-19.
  
 Gaussian, Inc.
 340 Quinnipiac St., Bldg. 40, Wallingford CT 06492
  
  
 ---------------------------------------------------------------
 Warning -- This program may not be used in any manner that
 competes with the business of Gaussian, Inc. or will provide
 assistance to any competitor of Gaussian, Inc.  The licensee
 of this program is prohibited from giving any competitor of
 Gaussian, Inc. access to this program.  By using this program,
 the user acknowledges that Gaussian, Inc. is engaged in the
 business of creating and licensing software in the field of
 computational chemistry and represents and warrants to the
 licensee that it is not a competitor of Gaussian, Inc. and that
 it will not use this program in any manner prohibited above.
 ---------------------------------------------------------------
  

 Cite this work as:
 Gaussian 16, Revision C.01,
 M. J. Frisch, G. W. Trucks, H. B. Schlegel, G. E. Scuseria, 
 M. A. Robb, J. R. Cheeseman, G. Scalmani, V. Barone, 
 G. A. Petersson, H. Nakatsuji, X. Li, M. Caricato, A. V. Marenich, 
 J. Bloino, B. G. Janesko, R. Gomperts, B. Mennucci, H. P. Hratchian, 
 J. V. Ortiz, A. F. Izmaylov, J. L. Sonnenberg, D. Williams-Young, 
 F. Ding, F. Lipparini, F. Egidi, J. Goings, B. Peng, A. Petrone, 
 T. Henderson, D. Ranasinghe, V. G. Zakrzewski, J. Gao, N. Rega, 
 G. Zheng, W. Liang, M. Hada, M. Ehara, K. Toyota, R. Fukuda, 
 J. Hasegawa, M. Ishida, T. Nakajima, Y. Honda, O. Kitao, H. Nakai, 
 T. Vreven, K. Throssell, J. A. Montgomery, Jr., J. E. Peralta, 
 F. Ogliaro, M. J. Bearpark, J. J. Heyd, E. N. Brothers, K. N. Kudin, 
 V. N. Staroverov, T. A. Keith, R. Kobayashi, J. Normand, 
 K. Raghavachari, A. P. Rendell, J. C. Burant, S. S. Iyengar, 
 J. Tomasi, M. Cossi, J. M. Millam, M. Klene, C. Adamo, R. Cammi, 
 J. W. Ochterski, R. L. Martin, K. Morokuma, O. Farkas, 
 J. B. Foresman, and D. J. Fox, Gaussian, Inc., Wallingford CT, 2019.
 
 ******************************************
 Gaussian 16:  ES64L-G16RevC.01  3-Jul-2019
                 8-Feb-2023 
 ******************************************
 %nproc=4
 Will use up to    4 processors via shared memory.
 %mem=5760MB
 %chk=gaussian_23_water_ccsdt_atz.chk
 ----------------------------------------
 #P CCSD(T)/aug-cc-pVTZ scf(maxcycle=200)
 ----------------------------------------
 1/38=1,172=1/1;
 2/12=2,17=6,18=5,40=1/2;
 3/5=16,6=1,7=10,11=9,25=1,30=1/1,2,3;
 4//1;
 5/5=2,7=200,38=5/2;
 8/6=4,9=120000,10=1/1,4;
 9/5=7,14=2/13;
 6/7=2,8=2,9=2,10=2/1;
 99/5=1,9=1/99;
 Leave Link    1 at Wed Feb  8 13:49:02 2023, MaxMem=   754974720 cpu:               0.1 elap:               0.0
 (Enter /opt/cluster/programs/g16-c.01/g16/l101.exe)
 --------------
 Gaussian input
 --------------
 Symbolic Z-matrix:
 Charge =  0 Multiplicity = 1
 O                     0.        0.11751   0. 
 H                     0.71834  -0.43951   0. 
 H                    -0.59359  -0.6357    0. 
 
 ITRead=  0  0  0
 MicOpt= -1 -1 -1
 NAtoms=      3 NQM=        3 NQMF=       0 NMMI=      0 NMMIF=      0
                NMic=       0 NMicF=      0.
                    Isotopes and Nuclear Properties:
 (Nuclear quadrupole moments (NQMom) in fm**2, nuclear magnetic moments (NMagM)
  in nuclear magnetons)

  Atom         1           2           3
 IAtWgt=          16           1           1
 AtmWgt=  15.9949146   1.0078250   1.0078250
 NucSpn=           0           1           1
 AtZEff=  -0.0000000  -0.0000000  -0.0000000
 NQMom=    0.0000000   0.0000000   0.0000000
 NMagM=    0.0000000   2.7928460   2.7928460
 AtZNuc=   8.0000000   1.0000000   1.0000000
 Leave Link  101 at Wed Feb  8 13:49:03 2023, MaxMem=   754974720 cpu:               0.7 elap:               0.2
 (Enter /opt/cluster/programs/g16-c.01/g16/l202.exe)
                          Input orientation:                          
 ---------------------------------------------------------------------
 Center     Atomic      Atomic             Coordinates (Angstroms)
 Number     Number       Type             X           Y           Z
 ---------------------------------------------------------------------
      1          8           0        0.000000    0.117510    0.000000
      2          1           0        0.718337   -0.439511    0.000000
      3          1           0       -0.593594   -0.635701    0.000000
 ---------------------------------------------------------------------
                    Distance matrix (angstroms):
                    1          2          3
     1  O    0.000000
     2  H    0.909000   0.000000
     3  H    0.959000   1.326520   0.000000
 Stoichiometry    H2O
 Framework group  CS[SG(H2O)]
 Deg. of freedom     3
 Full point group                 CS      NOp   2
 Largest Abelian subgroup         CS      NOp   2
 Largest concise Abelian subgroup C1      NOp   1
                         Standard orientation:                         
 ---------------------------------------------------------------------
 Center     Atomic      Atomic             Coordinates (Angstroms)
 Number     Number       Type             X           Y           Z
 ---------------------------------------------------------------------
      1          8           0        0.000000    0.131616    0.000000
      2          1           0        0.662310   -0.490981    0.000000
      3          1           0       -0.662310   -0.561945    0.000000
 ---------------------------------------------------------------------
 Rotational constants (GHZ):         665.2103399         560.1603105         304.0911992
 Leave Link  202 at Wed Feb  8 13:49:03 2023, MaxMem=   754974720 cpu:               0.1 elap:               0.0
 (Enter /opt/cluster/programs/g16-c.01/g16/l301.exe)
 Standard basis: Aug-CC-pVTZ (5D, 7F)
 Ernie: Thresh=  0.10000D-02 Tol=  0.10000D-05 Strict=F.
 Ernie:  3 primitive shells out of 52 were deleted.
 There are    73 symmetry adapted cartesian basis functions of A'  symmetry.
 There are    32 symmetry adapted cartesian basis functions of A"  symmetry.
 There are    62 symmetry adapted basis functions of A'  symmetry.
 There are    30 symmetry adapted basis functions of A"  symmetry.
    92 basis functions,   126 primitive gaussians,   105 cartesian basis functions
     5 alpha electrons        5 beta electrons
       nuclear repulsion energy         9.4705550460 Hartrees.
 IExCor=    0 DFT=F Ex=HF Corr=None ExCW=0 ScaHFX=  1.000000
 ScaDFX=  1.000000  1.000000  1.000000  1.000000 ScalE2=  1.000000  1.000000
 IRadAn=      5 IRanWt=     -1 IRanGd=            0 ICorTp=0 IEmpDi=  4
 NAtoms=    3 NActive=    3 NUniq=    3 SFac= 1.00D+00 NAtFMM=   60 NAOKFM=F Big=F
 Integral buffers will be    131072 words long.
 Raffenetti 1 integral format.
 Two-electron integral symmetry is turned on.
 Leave Link  301 at Wed Feb  8 13:49:03 2023, MaxMem=   754974720 cpu:               0.1 elap:               0.0
 (Enter /opt/cluster/programs/g16-c.01/g16/l302.exe)
 NPDir=0 NMtPBC=     1 NCelOv=     1 NCel=       1 NClECP=     1 NCelD=      1
         NCelK=      1 NCelE2=     1 NClLst=     1 CellRange=     0.0.
 One-electron integrals computed using PRISM.
 One-electron integral symmetry used in STVInt
 NBasis=    92 RedAO= T EigKep=  3.35D-04  NBF=    62    30
 NBsUse=    92 1.00D-06 EigRej= -1.00D+00 NBFU=    62    30
 Leave Link  302 at Wed Feb  8 13:49:03 2023, MaxMem=   754974720 cpu:               0.7 elap:               0.2
 (Enter /opt/cluster/programs/g16-c.01/g16/l303.exe)
 DipDrv:  MaxL=1.
 Leave Link  303 at Wed Feb  8 13:49:03 2023, MaxMem=   754974720 cpu:               0.1 elap:               0.0
 (Enter /opt/cluster/programs/g16-c.01/g16/l401.exe)
 ExpMin= 2.53D-02 ExpMax= 1.53D+04 ExpMxC= 5.22D+02 IAcc=3 IRadAn=         5 AccDes= 0.00D+00
 Harris functional with IExCor=  205 and IRadAn=       5 diagonalized for initial guess.
 HarFok:  IExCor=  205 AccDes= 0.00D+00 IRadAn=         5 IDoV= 1 UseB2=F ITyADJ=14
 ICtDFT=  3500011 ScaDFX=  1.000000  1.000000  1.000000  1.000000
 FoFCou: FMM=F IPFlag=           0 FMFlag=      100000 FMFlg1=           0
         NFxFlg=           0 DoJE=T BraDBF=F KetDBF=T FulRan=T
         wScrn=  0.000000 ICntrl=       500 IOpCl=  0 I1Cent=   200000004 NGrid=           0
         NMat0=    1 NMatS0=      1 NMatT0=    0 NMatD0=    1 NMtDS0=    0 NMtDT0=    0
 Petite list used in FoFCou.
 Harris En= -76.1458504304452    
 JPrj=0 DoOrth=F DoCkMO=F.
 Initial guess orbital symmetries:
       Occupied  (A') (A') (A') (A') (A")
       Virtual   (A') (A') (A') (A") (A') (A') (A') (A') (A") (A")
                 (A') (A') (A') (A') (A') (A') (A') (A") (A") (A")
                 (A') (A') (A') (A") (A') (A") (A') (A') (A') (A")
                 (A') (A') (A") (A') (A') (A") (A") (A') (A') (A')
                 (A') (A") (A") (A') (A') (A") (A') (A') (A') (A")
                 (A') (A') (A") (A') (A') (A") (A') (A") (A") (A')
                 (A') (A") (A") (A') (A') (A') (A') (A") (A') (A')
                 (A") (A') (A') (A') (A") (A') (A") (A') (A") (A")
                 (A') (A") (A') (A') (A') (A') (A')
 The electronic state of the initial guess is 1-A'.
 Leave Link  401 at Wed Feb  8 13:49:04 2023, MaxMem=   754974720 cpu:               0.9 elap:               0.2
 (Enter /opt/cluster/programs/g16-c.01/g16/l502.exe)
 Keep R1 ints in memory in symmetry-blocked form, NReq=13818732.
 FoFCou: FMM=F IPFlag=           0 FMFlag=           0 FMFlg1=           0
         NFxFlg=           0 DoJE=F BraDBF=F KetDBF=F FulRan=T
         wScrn=  0.000000 ICntrl=       600 IOpCl=  0 I1Cent=           0 NGrid=           0
         NMat0=    1 NMatS0=   4278 NMatT0=    0 NMatD0=    1 NMtDS0=    0 NMtDT0=    0
 Petite list used in FoFCou.
 Closed shell SCF:
 Using DIIS extrapolation, IDIIS=  1040.
 NGot=   754974720 LenX=   750285684 LenY=   750274218
 Requested convergence on RMS density matrix=1.00D-08 within 200 cycles.
 Requested convergence on MAX density matrix=1.00D-06.
 Requested convergence on             energy=1.00D-06.
 No special actions if energy rises.

 Cycle   1  Pass 1  IDiag  1:
 E= -75.9600672440781    
 DIIS: error= 5.00D-02 at cycle   1 NSaved=   1.
 NSaved= 1 IEnMin= 1 EnMin= -75.9600672440781     IErMin= 1 ErrMin= 5.00D-02
 ErrMax= 5.00D-02  0.00D+00 EMaxC= 1.00D-01 BMatC= 2.09D-01 BMatP= 2.09D-01
 IDIUse=3 WtCom= 5.00D-01 WtEn= 5.00D-01
 Coeff-Com:  0.100D+01
 Coeff-En:   0.100D+01
 Coeff:      0.100D+01
 Gap=     0.453 Goal=   None    Shift=    0.000
 GapD=    0.453 DampG=2.000 DampE=0.500 DampFc=1.0000 IDamp=-1.
 RMSDP=2.21D-03 MaxDP=4.97D-02              OVMax= 1.26D-01

 Cycle   2  Pass 1  IDiag  1:
 E= -76.0147957806386     Delta-E=       -0.054728536560 Rises=F Damp=F
 DIIS: error= 3.14D-02 at cycle   2 NSaved=   2.
 NSaved= 2 IEnMin= 2 EnMin= -76.0147957806386     IErMin= 2 ErrMin= 3.14D-02
 ErrMax= 3.14D-02  0.00D+00 EMaxC= 1.00D-01 BMatC= 6.08D-02 BMatP= 2.09D-01
 IDIUse=3 WtCom= 6.86D-01 WtEn= 3.14D-01
 Coeff-Com:  0.323D+00 0.677D+00
 Coeff-En:   0.194D+00 0.806D+00
 Coeff:      0.283D+00 0.717D+00
 Gap=     0.570 Goal=   None    Shift=    0.000
 RMSDP=1.32D-03 MaxDP=3.59D-02 DE=-5.47D-02 OVMax= 6.46D-02

 Cycle   3  Pass 1  IDiag  1:
 E= -76.0506274100025     Delta-E=       -0.035831629364 Rises=F Damp=F
 DIIS: error= 6.12D-03 at cycle   3 NSaved=   3.
 NSaved= 3 IEnMin= 3 EnMin= -76.0506274100025     IErMin= 3 ErrMin= 6.12D-03
 ErrMax= 6.12D-03  0.00D+00 EMaxC= 1.00D-01 BMatC= 2.52D-03 BMatP= 6.08D-02
 IDIUse=3 WtCom= 9.39D-01 WtEn= 6.12D-02
 Coeff-Com: -0.303D-01 0.137D+00 0.894D+00
 Coeff-En:   0.000D+00 0.000D+00 0.100D+01
 Coeff:     -0.284D-01 0.128D+00 0.900D+00
 Gap=     0.543 Goal=   None    Shift=    0.000
 RMSDP=2.02D-04 MaxDP=3.88D-03 DE=-3.58D-02 OVMax= 1.18D-02

 Cycle   4  Pass 1  IDiag  1:
 E= -76.0521894353220     Delta-E=       -0.001562025320 Rises=F Damp=F
 DIIS: error= 4.83D-04 at cycle   4 NSaved=   4.
 NSaved= 4 IEnMin= 4 EnMin= -76.0521894353220     IErMin= 4 ErrMin= 4.83D-04
 ErrMax= 4.83D-04  0.00D+00 EMaxC= 1.00D-01 BMatC= 9.92D-06 BMatP= 2.52D-03
 IDIUse=3 WtCom= 9.95D-01 WtEn= 4.83D-03
 Coeff-Com:  0.735D-02-0.509D-01-0.269D+00 0.131D+01
 Coeff-En:   0.000D+00 0.000D+00 0.000D+00 0.100D+01
 Coeff:      0.731D-02-0.506D-01-0.267D+00 0.131D+01
 Gap=     0.544 Goal=   None    Shift=    0.000
 RMSDP=3.57D-05 MaxDP=6.41D-04 DE=-1.56D-03 OVMax= 2.06D-03

 Cycle   5  Pass 1  IDiag  1:
 E= -76.0522088679118     Delta-E=       -0.000019432590 Rises=F Damp=F
 DIIS: error= 1.43D-04 at cycle   5 NSaved=   5.
 NSaved= 5 IEnMin= 5 EnMin= -76.0522088679118     IErMin= 5 ErrMin= 1.43D-04
 ErrMax= 1.43D-04  0.00D+00 EMaxC= 1.00D-01 BMatC= 5.16D-07 BMatP= 9.92D-06
 IDIUse=3 WtCom= 9.99D-01 WtEn= 1.43D-03
 Coeff-Com: -0.307D-03 0.485D-02 0.269D-01-0.328D+00 0.130D+01
 Coeff-En:   0.000D+00 0.000D+00 0.000D+00 0.000D+00 0.100D+01
 Coeff:     -0.307D-03 0.484D-02 0.268D-01-0.328D+00 0.130D+01
 Gap=     0.545 Goal=   None    Shift=    0.000
 RMSDP=9.70D-06 MaxDP=2.05D-04 DE=-1.94D-05 OVMax= 6.36D-04

 Cycle   6  Pass 1  IDiag  1:
 E= -76.0522100934505     Delta-E=       -0.000001225539 Rises=F Damp=F
 DIIS: error= 2.00D-05 at cycle   6 NSaved=   6.
 NSaved= 6 IEnMin= 6 EnMin= -76.0522100934505     IErMin= 6 ErrMin= 2.00D-05
 ErrMax= 2.00D-05  0.00D+00 EMaxC= 1.00D-01 BMatC= 1.49D-08 BMatP= 5.16D-07
 IDIUse=1 WtCom= 1.00D+00 WtEn= 0.00D+00
 Coeff-Com: -0.138D-03 0.234D-03-0.376D-03 0.564D-01-0.400D+00 0.134D+01
 Coeff:     -0.138D-03 0.234D-03-0.376D-03 0.564D-01-0.400D+00 0.134D+01
 Gap=     0.545 Goal=   None    Shift=    0.000
 RMSDP=1.76D-06 MaxDP=4.28D-05 DE=-1.23D-06 OVMax= 1.16D-04

 Cycle   7  Pass 1  IDiag  1:
 E= -76.0522101318405     Delta-E=       -0.000000038390 Rises=F Damp=F
 DIIS: error= 2.88D-06 at cycle   7 NSaved=   7.
 NSaved= 7 IEnMin= 7 EnMin= -76.0522101318405     IErMin= 7 ErrMin= 2.88D-06
 ErrMax= 2.88D-06  0.00D+00 EMaxC= 1.00D-01 BMatC= 4.14D-10 BMatP= 1.49D-08
 IDIUse=1 WtCom= 1.00D+00 WtEn= 0.00D+00
 Coeff-Com:  0.280D-04-0.212D-03-0.988D-03 0.619D-02 0.833D-03-0.164D+00
 Coeff-Com:  0.116D+01
 Coeff:      0.280D-04-0.212D-03-0.988D-03 0.619D-02 0.833D-03-0.164D+00
 Coeff:      0.116D+01
 Gap=     0.545 Goal=   None    Shift=    0.000
 RMSDP=2.52D-07 MaxDP=5.11D-06 DE=-3.84D-08 OVMax= 1.59D-05

 Cycle   8  Pass 1  IDiag  1:
 E= -76.0522101327461     Delta-E=       -0.000000000906 Rises=F Damp=F
 DIIS: error= 6.16D-07 at cycle   8 NSaved=   8.
 NSaved= 8 IEnMin= 8 EnMin= -76.0522101327461     IErMin= 8 ErrMin= 6.16D-07
 ErrMax= 6.16D-07  0.00D+00 EMaxC= 1.00D-01 BMatC= 1.91D-11 BMatP= 4.14D-10
 IDIUse=1 WtCom= 1.00D+00 WtEn= 0.00D+00
 Coeff-Com:  0.410D-05 0.142D-04 0.168D-03-0.407D-02 0.224D-01-0.550D-01
 Coeff-Com: -0.150D+00 0.119D+01
 Coeff:      0.410D-05 0.142D-04 0.168D-03-0.407D-02 0.224D-01-0.550D-01
 Coeff:     -0.150D+00 0.119D+01
 Gap=     0.545 Goal=   None    Shift=    0.000
 RMSDP=7.04D-08 MaxDP=1.63D-06 DE=-9.06D-10 OVMax= 4.01D-06

 Cycle   9  Pass 1  IDiag  1:
 E= -76.0522101327933     Delta-E=       -0.000000000047 Rises=F Damp=F
 DIIS: error= 1.22D-07 at cycle   9 NSaved=   9.
 NSaved= 9 IEnMin= 9 EnMin= -76.0522101327933     IErMin= 9 ErrMin= 1.22D-07
 ErrMax= 1.22D-07  0.00D+00 EMaxC= 1.00D-01 BMatC= 4.72D-13 BMatP= 1.91D-11
 IDIUse=1 WtCom= 1.00D+00 WtEn= 0.00D+00
 Coeff-Com: -0.140D-05 0.168D-05-0.180D-04 0.735D-03-0.454D-02 0.144D-01
 Coeff-Com:  0.951D-02-0.270D+00 0.125D+01
 Coeff:     -0.140D-05 0.168D-05-0.180D-04 0.735D-03-0.454D-02 0.144D-01
 Coeff:      0.951D-02-0.270D+00 0.125D+01
 Gap=     0.545 Goal=   None    Shift=    0.000
 RMSDP=1.28D-08 MaxDP=2.91D-07 DE=-4.72D-11 OVMax= 5.95D-07

 Cycle  10  Pass 1  IDiag  1:
 E= -76.0522101327944     Delta-E=       -0.000000000001 Rises=F Damp=F
 DIIS: error= 2.51D-08 at cycle  10 NSaved=  10.
 NSaved=10 IEnMin=10 EnMin= -76.0522101327944     IErMin=10 ErrMin= 2.51D-08
 ErrMax= 2.51D-08  0.00D+00 EMaxC= 1.00D-01 BMatC= 1.83D-14 BMatP= 4.72D-13
 IDIUse=1 WtCom= 1.00D+00 WtEn= 0.00D+00
 Coeff-Com:  0.391D-06-0.980D-06 0.195D-05-0.156D-03 0.101D-02-0.358D-02
 Coeff-Com:  0.760D-03 0.624D-01-0.455D+00 0.139D+01
 Coeff:      0.391D-06-0.980D-06 0.195D-05-0.156D-03 0.101D-02-0.358D-02
 Coeff:      0.760D-03 0.624D-01-0.455D+00 0.139D+01
 Gap=     0.545 Goal=   None    Shift=    0.000
 RMSDP=2.80D-09 MaxDP=5.71D-08 DE=-1.12D-12 OVMax= 1.40D-07

 SCF Done:  E(RHF) =  -76.0522101328     A.U. after   10 cycles
            NFock= 10  Conv=0.28D-08     -V/T= 1.9996
 KE= 7.608428518305D+01 PE=-1.995693424682D+02 EE= 3.796229210642D+01
 Leave Link  502 at Wed Feb  8 13:49:04 2023, MaxMem=   754974720 cpu:               2.5 elap:               0.6
 (Enter /opt/cluster/programs/g16-c.01/g16/l801.exe)
 Windowed orbitals will be sorted by symmetry type.
 ExpMin= 2.53D-02 ExpMax= 1.53D+04 ExpMxC= 5.22D+02 IAcc=3 IRadAn=         5 AccDes= 0.00D+00
 HarFok:  IExCor=  205 AccDes= 0.00D+00 IRadAn=         5 IDoV=-2 UseB2=F ITyADJ=14
 ICtDFT= 12500011 ScaDFX=  1.000000  1.000000  1.000000  1.000000
 Largest valence mixing into a core orbital is  1.11D-04
 Largest core mixing into a valence orbital is  1.59D-05
 Range of M.O.s used for correlation:     2    92
 NBasis=    92 NAE=     5 NBE=     5 NFC=     1 NFV=     0
 NROrb=     91 NOA=     4 NOB=     4 NVA=    87 NVB=    87

 **** Warning!!: The largest alpha MO coefficient is  0.16238766D+02

 Leave Link  801 at Wed Feb  8 13:49:04 2023, MaxMem=   754974720 cpu:               0.3 elap:               0.1
 (Enter /opt/cluster/programs/g16-c.01/g16/l804.exe)
 Closed-shell transformation, MDV=   754974720 ITran=4 ISComp=2.
 Unit  1 TFree=        277501 TCopy=        343607.
 Semi-Direct transformation.
 ModeAB=           2 MOrb=             4 LenV=     754586750
 LASXX=       736380 LTotXX=      736380 LenRXX=      736380
 LTotAB=      763744 MaxLAS=     2025660 LenRXY=     2025660
 NonZer=     2107560 LenScr=     3929600 LnRSAI=           0
 LnScr1=           0 LExtra=           0 Total=      6691640
 MaxDsk=          -1 SrtSym=           F ITran=            4
 DoSDTr:  NPSUse=  4
 JobTyp=0 Pass  1:  I=   1 to   4.
 (rs|ai) integrals will be sorted in core.
 Complete sort for first half transformation.
 First half transformation complete.
 Complete sort for second half transformation.
 Second half transformation complete.
 Spin components of T(2) and E(2):
     alpha-alpha T2 =       0.8040587843D-02 E2=     -0.3259752574D-01
     alpha-beta  T2 =       0.4641301477D-01 E2=     -0.2028082677D+00
     beta-beta   T2 =       0.8040587843D-02 E2=     -0.3259752574D-01
 ANorm=    0.1030773588D+01
 E2 =    -0.2680033192D+00 EUMP2 =    -0.76320213451993D+02
 Leave Link  804 at Wed Feb  8 13:49:05 2023, MaxMem=   754974720 cpu:               2.5 elap:               0.7
 (Enter /opt/cluster/programs/g16-c.01/g16/l913.exe)
 CIDS:  MDV=   754974720.
 Frozen-core window:  NFC=   1 NFV=   0.
 IFCWin=0 IBDFC=1 NFBD=     0     0 NFCmp=     0     0 NFFFC=     0     0
 Using DD3R+UMP44R for 1st iteration.
 Using DD4RQ for 2nd and later iterations.
 Keep R2 and R3 ints in memory in symmetry-blocked form, NReq=13979827.
 FoFCou: FMM=F IPFlag=           0 FMFlag=           0 FMFlg1=           0
         NFxFlg=           0 DoJE=F BraDBF=F KetDBF=F FulRan=T
         wScrn=  0.000000 ICntrl=       600 IOpCl=  0 I1Cent=           0 NGrid=           0
         NMat0=    1 NMatS0=   4278 NMatT0=    0 NMatD0=    1 NMtDS0=    0 NMtDT0=    0
 Petite list used in FoFCou.
 CIDS: In Core Option IDoMem=           1.
 CCSD(T)
 =======
 Iterations=  50 Convergence= 0.100D-06
 Produce multiple copies of IABC intergrals
 Iteration Nr.   1
 **********************
 DD1Dir will call FoFMem   1 times, MxPair=        20
 NAB=    10 NAA=     0 NBB=     0.
 MP4(R+Q)=  0.40399225D-02
 Maximum subspace dimension=  5
 A-vector RMS=  2.7888370D-03 Max=  1.1541971D-02 conv= 1.00D-05.
 RLE energy=       -0.2667427145
 E3=       -0.28150149D-02        EUMP3=      -0.76323028467D+02
 E4(DQ)=   -0.48499223D-03        UMP4(DQ)=   -0.76323513459D+02
 E4(SDQ)=  -0.23193121D-02        UMP4(SDQ)=  -0.76325347779D+02
 VARIATIONAL ENERGIES WITH THE FIRST-ORDER WAVEFUNCTION:
 DE(Corr)= -0.26673676     E(Corr)=     -76.318946896    
 NORM(A)=   0.10305756D+01
 Iteration Nr.   2
 **********************
 DD1Dir will call FoFMem   1 times, MxPair=        20
 NAB=    10 NAA=     0 NBB=     0.
 A-vector RMS=  2.9075548D-04 Max=  2.0742343D-03 conv= 1.00D-05.
 RLE energy=       -0.2723385166
 DE(Corr)= -0.27197718     E(CORR)=     -76.324187308     Delta=-5.24D-03
 NORM(A)=   0.10325775D+01
 Iteration Nr.   3
 **********************
 DD1Dir will call FoFMem   1 times, MxPair=        20
 NAB=    10 NAA=     0 NBB=     0.
 A-vector RMS=  3.7957388D-04 Max=  2.0790086D-03 conv= 1.00D-05.
 RLE energy=       -0.2726284820
 DE(Corr)= -0.27227636     E(CORR)=     -76.324486490     Delta=-2.99D-04
 NORM(A)=   0.10329605D+01
 Iteration Nr.   4
 **********************
 DD1Dir will call FoFMem   1 times, MxPair=        20
 NAB=    10 NAA=     0 NBB=     0.
 A-vector RMS=  5.7538884D-05 Max=  3.4182984D-04 conv= 1.00D-05.
 RLE energy=       -0.2726594640
 DE(Corr)= -0.27263363     E(CORR)=     -76.324843761     Delta=-3.57D-04
 NORM(A)=   0.10330642D+01
 Iteration Nr.   5
 **********************
 DD1Dir will call FoFMem   1 times, MxPair=        20
 NAB=    10 NAA=     0 NBB=     0.
 A-vector RMS=  2.7776449D-05 Max=  1.7831555D-04 conv= 1.00D-05.
 RLE energy=       -0.2726703714
 DE(Corr)= -0.27266560     E(CORR)=     -76.324875731     Delta=-3.20D-05
 NORM(A)=   0.10330844D+01
 Iteration Nr.   6
 **********************
 DD1Dir will call FoFMem   1 times, MxPair=        20
 NAB=    10 NAA=     0 NBB=     0.
 A-vector RMS=  6.5335988D-06 Max=  4.0084942D-05 conv= 1.00D-05.
 RLE energy=       -0.2726671484
 DE(Corr)= -0.27266794     E(CORR)=     -76.324878069     Delta=-2.34D-06
 NORM(A)=   0.10330861D+01
 Iteration Nr.   7
 **********************
 DD1Dir will call FoFMem   1 times, MxPair=        20
 NAB=    10 NAA=     0 NBB=     0.
 A-vector RMS=  2.0591970D-06 Max=  1.1069231D-05 conv= 1.00D-05.
 RLE energy=       -0.2726671267
 DE(Corr)= -0.27266792     E(CORR)=     -76.324878051     Delta= 1.76D-08
 NORM(A)=   0.10330866D+01
 Iteration Nr.   8
 **********************
 DD1Dir will call FoFMem   1 times, MxPair=        20
 NAB=    10 NAA=     0 NBB=     0.
 A-vector RMS=  8.1130560D-07 Max=  5.3346652D-06 conv= 1.00D-05.
 RLE energy=       -0.2726676187
 DE(Corr)= -0.27266771     E(CORR)=     -76.324877838     Delta= 2.13D-07
 NORM(A)=   0.10330870D+01
 Iteration Nr.   9
 **********************
 DD1Dir will call FoFMem   1 times, MxPair=        20
 NAB=    10 NAA=     0 NBB=     0.
 A-vector RMS=  1.5960363D-07 Max=  9.0878021D-07 conv= 1.00D-05.
 RLE energy=       -0.2726676983
 DE(Corr)= -0.27266771     E(CORR)=     -76.324877844     Delta=-5.74D-09
 NORM(A)=   0.10330871D+01
 CI/CC converged in    9 iterations to DelEn=-5.74D-09 Conv= 1.00D-07 ErrA1= 1.60D-07 Conv= 1.00D-05
 Wavefunction amplitudes converged. E(Corr)=     -76.324877844    
 Largest amplitude= 2.10D-02
 IPart=  1 IA=    6   11.23% done.
 IPart=  3 IA=   11   21.79% done.
 IPart=  3 IA=   16   31.68% done.
 IPart=  1 IA=   21   40.90% done.
 IPart=  3 IA=   27   51.08% done.
 IPart=  4 IA=   33   60.30% done.
 IPart=  1 IA=   41   71.10% done.
 IPart=  1 IA=   49   80.19% done.
 IPart=  2 IA=   61   90.62% done.
 Time for triples=        6.34 seconds.
 T4(CCSD)= -0.88405152D-02
 T5(CCSD)=  0.31010126D-03
 CCSD(T)= -0.76333408258D+02
 Discarding MO integrals.
 Leave Link  913 at Wed Feb  8 13:49:08 2023, MaxMem=   754974720 cpu:              12.6 elap:               3.1
 (Enter /opt/cluster/programs/g16-c.01/g16/l601.exe)
 Copying SCF densities to generalized density rwf, IOpCl= 0 IROHF=0.

 **********************************************************************

            Population analysis using the SCF Density.

 **********************************************************************

 Orbital symmetries:
       Occupied  (A') (A') (A') (A') (A")
       Virtual   (A') (A') (A') (A") (A') (A') (A') (A') (A") (A")
                 (A') (A') (A') (A') (A') (A') (A') (A") (A") (A')
                 (A") (A') (A") (A') (A") (A') (A') (A') (A') (A")
                 (A') (A") (A') (A') (A') (A") (A") (A') (A') (A')
                 (A') (A") (A") (A') (A') (A") (A') (A') (A') (A")
                 (A') (A') (A") (A') (A') (A") (A') (A") (A") (A')
                 (A') (A") (A") (A') (A') (A') (A') (A") (A') (A')
                 (A") (A') (A') (A') (A") (A') (A") (A') (A") (A")
                 (A") (A') (A') (A') (A') (A') (A')
 The electronic state is 1-A'.
 Alpha  occ. eigenvalues --  -20.56816  -1.37846  -0.69991  -0.61752  -0.51618
 Alpha virt. eigenvalues --    0.02864   0.04866   0.13350   0.15961   0.17767
 Alpha virt. eigenvalues --    0.18644   0.22555   0.24825   0.27053   0.28838
 Alpha virt. eigenvalues --    0.30398   0.37077   0.43780   0.47216   0.59256
 Alpha virt. eigenvalues --    0.67177   0.70198   0.72459   0.73423   0.85179
 Alpha virt. eigenvalues --    0.86630   0.89476   0.90074   0.91705   0.92731
 Alpha virt. eigenvalues --    0.94272   0.95248   1.02426   1.05699   1.07947
 Alpha virt. eigenvalues --    1.11302   1.19091   1.20748   1.25792   1.45124
 Alpha virt. eigenvalues --    1.52730   1.56808   1.80587   1.94099   1.98586
 Alpha virt. eigenvalues --    2.18186   2.27368   2.32464   2.33329   2.40220
 Alpha virt. eigenvalues --    2.42151   2.44742   2.53366   2.65296   2.69656
 Alpha virt. eigenvalues --    2.71510   2.86235   2.88951   3.56698   3.72883
 Alpha virt. eigenvalues --    4.04918   4.05157   4.12174   4.15945   4.38706
 Alpha virt. eigenvalues --    4.40585   4.40852   4.43272   4.62419   4.79800
 Alpha virt. eigenvalues --    4.96145   5.12691   5.19032   5.29091   5.51342
 Alpha virt. eigenvalues --    5.64263   5.65360   6.30218   6.47916   6.70445
 Alpha virt. eigenvalues --    7.12224   7.16251   7.19388   7.27514   7.30883
 Alpha virt. eigenvalues --    7.44336   7.47744   7.57581   7.74196   8.13155
 Alpha virt. eigenvalues --    9.00609  16.68437
          Condensed to atoms (all electrons):
               1          2          3
     1  O    7.874905   0.264160   0.269013
     2  H    0.264160   0.534419   0.022525
     3  H    0.269013   0.022525   0.479282
 Mulliken charges:
               1
     1  O   -0.408077
     2  H    0.178897
     3  H    0.229180
 Sum of Mulliken charges =   0.00000
 Mulliken charges with hydrogens summed into heavy atoms:
               1
     1  O    0.000000
 Electronic spatial extent (au):  <R**2>=             19.1380
 Charge=              0.0000 electrons
 Dipole moment (field-independent basis, Debye):
    X=              0.0297    Y=             -2.1766    Z=              0.0000  Tot=              2.1768
 Quadrupole moment (field-independent basis, Debye-Ang):
   XX=             -4.8970   YY=             -5.8039   ZZ=             -7.4862
   XY=              0.0927   XZ=              0.0000   YZ=              0.0000
 Traceless Quadrupole moment (field-independent basis, Debye-Ang):
   XX=              1.1653   YY=              0.2585   ZZ=             -1.4238
   XY=              0.0927   XZ=              0.0000   YZ=              0.0000
 Octapole moment (field-independent basis, Debye-Ang**2):
  XXX=              0.0818  YYY=             -1.4472  ZZZ=              0.0000  XYY=             -0.0779
  XXY=             -1.2394  XXZ=              0.0000  XZZ=              0.0266  YZZ=             -0.2921
  YYZ=              0.0000  XYZ=              0.0000
 Hexadecapole moment (field-independent basis, Debye-Ang**3):
 XXXX=             -6.1656 YYYY=             -7.0509 ZZZZ=             -6.5897 XXXY=             -0.0411
 XXXZ=              0.0000 YYYX=              0.0095 YYYZ=              0.0000 ZZZX=              0.0000
 ZZZY=              0.0000 XXYY=             -1.7679 XXZZ=             -2.3120 YYZZ=             -2.3563
 XXYZ=              0.0000 YYXZ=              0.0000 ZZXY=             -0.0320
 N-N= 9.470555045964D+00 E-N=-1.995693424405D+02  KE= 7.608428518305D+01
 Symmetry A'   KE= 7.160876899266D+01
 Symmetry A"   KE= 4.475516190387D+00
 Leave Link  601 at Wed Feb  8 13:49:08 2023, MaxMem=   754974720 cpu:               0.1 elap:               0.0
 (Enter /opt/cluster/programs/g16-c.01/g16/l9999.exe)
 Unable to Open any file for archive entry.
 1\1\GINC-NODE58\SP\RCCSD(T)-FC\Aug-CC-pVTZ\H2O1\BOITTIER\08-Feb-2023\0
 \\#P CCSD(T)/aug-cc-pVTZ scf(maxcycle=200)\\Gaussian input\\0,1\O,0,0.
 ,0.11751,0.\H,0,0.7183372325,-0.4395112028,0.\H,0,-0.5935943847,-0.635
 7009309,0.\\Version=ES64L-G16RevC.01\State=1-A'\HF=-76.0522101\MP2=-76
 .3202135\MP3=-76.3230285\MP4D=-76.3275534\MP4DQ=-76.3235135\MP4SDQ=-76
 .3253478\CCSD=-76.3248778\CCSD(T)=-76.3334083\RMSD=2.799e-09\PG=CS [SG
 (H2O1)]\\@
 The archive entry for this job was punched.


 CHARLIE BROWN -- WHICH DO YOU THINK LASTS LONGER IN LIFE, THE GOOD THINGS 
                  OR THE BAD THINGS?
 LINUS --         GOOD THINGS LAST EIGHT SECONDS ..
                  BAD THINGS LAST THREE WEEKS
 CHARLIE BROWN -- WHAT ABOUT IN BETWEEN?
 SNOOPY --        IN BETWEEN YOU SHOULD TAKE A NAP ...
 Job cpu time:       0 days  0 hours  0 minutes 21.0 seconds.
 Elapsed time:       0 days  0 hours  0 minutes  5.4 seconds.
 File lengths (MBytes):  RWF=     75 Int=      0 D2E=      0 Chk=      2 Scr=      1
 Normal termination of Gaussian 16 at Wed Feb  8 13:49:08 2023.
