 Entering Gaussian System, Link 0=/opt/cluster/programs/g16-c.01/g16/g16
 Input=/scratch/boittier/jobs/tmp.7261720/gaussian_52_water_ccsdt_atz.com
 Output=/scratch/boittier/jobs/tmp.7261720/gaussian_52_water_ccsdt_atz.out
 Initial command:
 /opt/cluster/programs/g16-c.01/g16/l1.exe "/scratch/boittier/jobs/tmp.7261720/Gau-150614.inp" -scrdir="/scratch/boittier/jobs/tmp.7261720/"
 Entering Link 1 = /opt/cluster/programs/g16-c.01/g16/l1.exe PID=    150615.
  
 Copyright (c) 1988-2019, Gaussian, Inc.  All Rights Reserved.
  
 This is part of the Gaussian(R) 16 program.  It is based on
 the Gaussian(R) 09 system (copyright 2009, Gaussian, Inc.),
 the Gaussian(R) 03 system (copyright 2003, Gaussian, Inc.),
 the Gaussian(R) 98 system (copyright 1998, Gaussian, Inc.),
 the Gaussian(R) 94 system (copyright 1995, Gaussian, Inc.),
 the Gaussian 92(TM) system (copyright 1992, Gaussian, Inc.),
 the Gaussian 90(TM) system (copyright 1990, Gaussian, Inc.),
 the Gaussian 88(TM) system (copyright 1988, Gaussian, Inc.),
 the Gaussian 86(TM) system (copyright 1986, Carnegie Mellon
 University), and the Gaussian 82(TM) system (copyright 1983,
 Carnegie Mellon University). Gaussian is a federally registered
 trademark of Gaussian, Inc.
  
 This software contains proprietary and confidential information,
 including trade secrets, belonging to Gaussian, Inc.
  
 This software is provided under written license and may be
 used, copied, transmitted, or stored only in accord with that
 written license.
  
 The following legend is applicable only to US Government
 contracts under FAR:
  
                    RESTRICTED RIGHTS LEGEND
  
 Use, reproduction and disclosure by the US Government is
 subject to restrictions as set forth in subparagraphs (a)
 and (c) of the Commercial Computer Software - Restricted
 Rights clause in FAR 52.227-19.
  
 Gaussian, Inc.
 340 Quinnipiac St., Bldg. 40, Wallingford CT 06492
  
  
 ---------------------------------------------------------------
 Warning -- This program may not be used in any manner that
 competes with the business of Gaussian, Inc. or will provide
 assistance to any competitor of Gaussian, Inc.  The licensee
 of this program is prohibited from giving any competitor of
 Gaussian, Inc. access to this program.  By using this program,
 the user acknowledges that Gaussian, Inc. is engaged in the
 business of creating and licensing software in the field of
 computational chemistry and represents and warrants to the
 licensee that it is not a competitor of Gaussian, Inc. and that
 it will not use this program in any manner prohibited above.
 ---------------------------------------------------------------
  

 Cite this work as:
 Gaussian 16, Revision C.01,
 M. J. Frisch, G. W. Trucks, H. B. Schlegel, G. E. Scuseria, 
 M. A. Robb, J. R. Cheeseman, G. Scalmani, V. Barone, 
 G. A. Petersson, H. Nakatsuji, X. Li, M. Caricato, A. V. Marenich, 
 J. Bloino, B. G. Janesko, R. Gomperts, B. Mennucci, H. P. Hratchian, 
 J. V. Ortiz, A. F. Izmaylov, J. L. Sonnenberg, D. Williams-Young, 
 F. Ding, F. Lipparini, F. Egidi, J. Goings, B. Peng, A. Petrone, 
 T. Henderson, D. Ranasinghe, V. G. Zakrzewski, J. Gao, N. Rega, 
 G. Zheng, W. Liang, M. Hada, M. Ehara, K. Toyota, R. Fukuda, 
 J. Hasegawa, M. Ishida, T. Nakajima, Y. Honda, O. Kitao, H. Nakai, 
 T. Vreven, K. Throssell, J. A. Montgomery, Jr., J. E. Peralta, 
 F. Ogliaro, M. J. Bearpark, J. J. Heyd, E. N. Brothers, K. N. Kudin, 
 V. N. Staroverov, T. A. Keith, R. Kobayashi, J. Normand, 
 K. Raghavachari, A. P. Rendell, J. C. Burant, S. S. Iyengar, 
 J. Tomasi, M. Cossi, J. M. Millam, M. Klene, C. Adamo, R. Cammi, 
 J. W. Ochterski, R. L. Martin, K. Morokuma, O. Farkas, 
 J. B. Foresman, and D. J. Fox, Gaussian, Inc., Wallingford CT, 2019.
 
 ******************************************
 Gaussian 16:  ES64L-G16RevC.01  3-Jul-2019
                 8-Feb-2023 
 ******************************************
 %nproc=4
 Will use up to    4 processors via shared memory.
 %mem=5760MB
 %chk=gaussian_52_water_ccsdt_atz.chk
 ----------------------------------------
 #P CCSD(T)/aug-cc-pVTZ scf(maxcycle=200)
 ----------------------------------------
 1/38=1,172=1/1;
 2/12=2,17=6,18=5,40=1/2;
 3/5=16,6=1,7=10,11=9,25=1,30=1/1,2,3;
 4//1;
 5/5=2,7=200,38=5/2;
 8/6=4,9=120000,10=1/1,4;
 9/5=7,14=2/13;
 6/7=2,8=2,9=2,10=2/1;
 99/5=1,9=1/99;
 Leave Link    1 at Wed Feb  8 13:50:27 2023, MaxMem=   754974720 cpu:               0.2 elap:               0.1
 (Enter /opt/cluster/programs/g16-c.01/g16/l101.exe)
 --------------
 Gaussian input
 --------------
 Symbolic Z-matrix:
 Charge =  0 Multiplicity = 1
 O                     0.        0.11751   0. 
 H                     0.71834  -0.43951   0. 
 H                    -0.83887  -0.44319   0. 
 
 ITRead=  0  0  0
 MicOpt= -1 -1 -1
 NAtoms=      3 NQM=        3 NQMF=       0 NMMI=      0 NMMIF=      0
                NMic=       0 NMicF=      0.
                    Isotopes and Nuclear Properties:
 (Nuclear quadrupole moments (NQMom) in fm**2, nuclear magnetic moments (NMagM)
  in nuclear magnetons)

  Atom         1           2           3
 IAtWgt=          16           1           1
 AtmWgt=  15.9949146   1.0078250   1.0078250
 NucSpn=           0           1           1
 AtZEff=  -0.0000000  -0.0000000  -0.0000000
 NQMom=    0.0000000   0.0000000   0.0000000
 NMagM=    0.0000000   2.7928460   2.7928460
 AtZNuc=   8.0000000   1.0000000   1.0000000
 Leave Link  101 at Wed Feb  8 13:50:27 2023, MaxMem=   754974720 cpu:               0.6 elap:               0.3
 (Enter /opt/cluster/programs/g16-c.01/g16/l202.exe)
                          Input orientation:                          
 ---------------------------------------------------------------------
 Center     Atomic      Atomic             Coordinates (Angstroms)
 Number     Number       Type             X           Y           Z
 ---------------------------------------------------------------------
      1          8           0        0.000000    0.117510    0.000000
      2          1           0        0.718337   -0.439511    0.000000
      3          1           0       -0.838866   -0.443190    0.000000
 ---------------------------------------------------------------------
                    Distance matrix (angstroms):
                    1          2          3
     1  O    0.000000
     2  H    0.909000   0.000000
     3  H    1.009000   1.557208   0.000000
 Stoichiometry    H2O
 Framework group  CS[SG(H2O)]
 Deg. of freedom     3
 Full point group                 CS      NOp   2
 Largest Abelian subgroup         CS      NOp   2
 Largest concise Abelian subgroup C1      NOp   1
                         Standard orientation:                         
 ---------------------------------------------------------------------
 Center     Atomic      Atomic             Coordinates (Angstroms)
 Number     Number       Type             X           Y           Z
 ---------------------------------------------------------------------
      1          8           0        0.000000    0.112420    0.000000
      2          1           0        0.773917   -0.364376    0.000000
      3          1           0       -0.773917   -0.534986    0.000000
 ---------------------------------------------------------------------
 Rotational constants (GHZ):         913.5884982         409.4325586         282.7263213
 Leave Link  202 at Wed Feb  8 13:50:27 2023, MaxMem=   754974720 cpu:               0.1 elap:               0.0
 (Enter /opt/cluster/programs/g16-c.01/g16/l301.exe)
 Standard basis: Aug-CC-pVTZ (5D, 7F)
 Ernie: Thresh=  0.10000D-02 Tol=  0.10000D-05 Strict=F.
 Ernie:  3 primitive shells out of 52 were deleted.
 There are    73 symmetry adapted cartesian basis functions of A'  symmetry.
 There are    32 symmetry adapted cartesian basis functions of A"  symmetry.
 There are    62 symmetry adapted basis functions of A'  symmetry.
 There are    30 symmetry adapted basis functions of A"  symmetry.
    92 basis functions,   126 primitive gaussians,   105 cartesian basis functions
     5 alpha electrons        5 beta electrons
       nuclear repulsion energy         9.1927064147 Hartrees.
 IExCor=    0 DFT=F Ex=HF Corr=None ExCW=0 ScaHFX=  1.000000
 ScaDFX=  1.000000  1.000000  1.000000  1.000000 ScalE2=  1.000000  1.000000
 IRadAn=      5 IRanWt=     -1 IRanGd=            0 ICorTp=0 IEmpDi=  4
 NAtoms=    3 NActive=    3 NUniq=    3 SFac= 1.00D+00 NAtFMM=   60 NAOKFM=F Big=F
 Integral buffers will be    131072 words long.
 Raffenetti 1 integral format.
 Two-electron integral symmetry is turned on.
 Leave Link  301 at Wed Feb  8 13:50:27 2023, MaxMem=   754974720 cpu:               0.1 elap:               0.0
 (Enter /opt/cluster/programs/g16-c.01/g16/l302.exe)
 NPDir=0 NMtPBC=     1 NCelOv=     1 NCel=       1 NClECP=     1 NCelD=      1
         NCelK=      1 NCelE2=     1 NClLst=     1 CellRange=     0.0.
 One-electron integrals computed using PRISM.
 One-electron integral symmetry used in STVInt
 NBasis=    92 RedAO= T EigKep=  3.40D-04  NBF=    62    30
 NBsUse=    92 1.00D-06 EigRej= -1.00D+00 NBFU=    62    30
 Leave Link  302 at Wed Feb  8 13:50:28 2023, MaxMem=   754974720 cpu:               3.1 elap:               1.1
 (Enter /opt/cluster/programs/g16-c.01/g16/l303.exe)
 DipDrv:  MaxL=1.
 Leave Link  303 at Wed Feb  8 13:50:29 2023, MaxMem=   754974720 cpu:               0.2 elap:               0.1
 (Enter /opt/cluster/programs/g16-c.01/g16/l401.exe)
 ExpMin= 2.53D-02 ExpMax= 1.53D+04 ExpMxC= 5.22D+02 IAcc=3 IRadAn=         5 AccDes= 0.00D+00
 Harris functional with IExCor=  205 and IRadAn=       5 diagonalized for initial guess.
 HarFok:  IExCor=  205 AccDes= 0.00D+00 IRadAn=         5 IDoV= 1 UseB2=F ITyADJ=14
 ICtDFT=  3500011 ScaDFX=  1.000000  1.000000  1.000000  1.000000
 FoFCou: FMM=F IPFlag=           0 FMFlag=      100000 FMFlg1=           0
         NFxFlg=           0 DoJE=T BraDBF=F KetDBF=T FulRan=T
         wScrn=  0.000000 ICntrl=       500 IOpCl=  0 I1Cent=   200000004 NGrid=           0
         NMat0=    1 NMatS0=      1 NMatT0=    0 NMatD0=    1 NMtDS0=    0 NMtDT0=    0
 Petite list used in FoFCou.
 Harris En= -76.1500256597601    
 JPrj=0 DoOrth=F DoCkMO=F.
 Initial guess orbital symmetries:
       Occupied  (A') (A') (A') (A') (A")
       Virtual   (A') (A') (A') (A") (A') (A') (A') (A') (A") (A')
                 (A") (A') (A') (A') (A') (A') (A') (A") (A") (A')
                 (A') (A") (A") (A') (A") (A') (A') (A') (A') (A")
                 (A') (A') (A") (A') (A") (A') (A") (A') (A') (A')
                 (A') (A") (A") (A') (A') (A') (A") (A') (A") (A')
                 (A') (A") (A') (A') (A') (A") (A") (A') (A') (A")
                 (A") (A") (A') (A') (A') (A') (A") (A') (A') (A')
                 (A") (A') (A') (A') (A") (A') (A") (A") (A') (A")
                 (A') (A") (A') (A') (A') (A') (A')
 The electronic state of the initial guess is 1-A'.
 Leave Link  401 at Wed Feb  8 13:50:29 2023, MaxMem=   754974720 cpu:               1.8 elap:               0.7
 (Enter /opt/cluster/programs/g16-c.01/g16/l502.exe)
 Keep R1 ints in memory in symmetry-blocked form, NReq=13818732.
 FoFCou: FMM=F IPFlag=           0 FMFlag=           0 FMFlg1=           0
         NFxFlg=           0 DoJE=F BraDBF=F KetDBF=F FulRan=T
         wScrn=  0.000000 ICntrl=       600 IOpCl=  0 I1Cent=           0 NGrid=           0
         NMat0=    1 NMatS0=   4278 NMatT0=    0 NMatD0=    1 NMtDS0=    0 NMtDT0=    0
 Petite list used in FoFCou.
 Closed shell SCF:
 Using DIIS extrapolation, IDIIS=  1040.
 NGot=   754974720 LenX=   750285684 LenY=   750274218
 Requested convergence on RMS density matrix=1.00D-08 within 200 cycles.
 Requested convergence on MAX density matrix=1.00D-06.
 Requested convergence on             energy=1.00D-06.
 No special actions if energy rises.

 Cycle   1  Pass 1  IDiag  1:
 E= -75.9633743336130    
 DIIS: error= 6.31D-02 at cycle   1 NSaved=   1.
 NSaved= 1 IEnMin= 1 EnMin= -75.9633743336130     IErMin= 1 ErrMin= 6.31D-02
 ErrMax= 6.31D-02  0.00D+00 EMaxC= 1.00D-01 BMatC= 2.08D-01 BMatP= 2.08D-01
 IDIUse=3 WtCom= 3.69D-01 WtEn= 6.31D-01
 Coeff-Com:  0.100D+01
 Coeff-En:   0.100D+01
 Coeff:      0.100D+01
 Gap=     0.451 Goal=   None    Shift=    0.000
 GapD=    0.451 DampG=2.000 DampE=0.500 DampFc=1.0000 IDamp=-1.
 RMSDP=2.20D-03 MaxDP=4.95D-02              OVMax= 1.24D-01

 Cycle   2  Pass 1  IDiag  1:
 E= -76.0171588980924     Delta-E=       -0.053784564479 Rises=F Damp=F
 DIIS: error= 4.16D-02 at cycle   2 NSaved=   2.
 NSaved= 2 IEnMin= 2 EnMin= -76.0171588980924     IErMin= 2 ErrMin= 4.16D-02
 ErrMax= 4.16D-02  0.00D+00 EMaxC= 1.00D-01 BMatC= 6.15D-02 BMatP= 2.08D-01
 IDIUse=3 WtCom= 5.84D-01 WtEn= 4.16D-01
 Coeff-Com:  0.326D+00 0.674D+00
 Coeff-En:   0.203D+00 0.797D+00
 Coeff:      0.274D+00 0.726D+00
 Gap=     0.567 Goal=   None    Shift=    0.000
 RMSDP=1.32D-03 MaxDP=3.38D-02 DE=-5.38D-02 OVMax= 6.65D-02

 Cycle   3  Pass 1  IDiag  1:
 E= -76.0533719937159     Delta-E=       -0.036213095623 Rises=F Damp=F
 DIIS: error= 8.86D-03 at cycle   3 NSaved=   3.
 NSaved= 3 IEnMin= 3 EnMin= -76.0533719937159     IErMin= 3 ErrMin= 8.86D-03
 ErrMax= 8.86D-03  0.00D+00 EMaxC= 1.00D-01 BMatC= 3.05D-03 BMatP= 6.15D-02
 IDIUse=3 WtCom= 9.11D-01 WtEn= 8.86D-02
 Coeff-Com: -0.309D-01 0.151D+00 0.880D+00
 Coeff-En:   0.000D+00 0.000D+00 0.100D+01
 Coeff:     -0.281D-01 0.137D+00 0.891D+00
 Gap=     0.536 Goal=   None    Shift=    0.000
 RMSDP=2.27D-04 MaxDP=4.33D-03 DE=-3.62D-02 OVMax= 1.29D-02

 Cycle   4  Pass 1  IDiag  1:
 E= -76.0552697609099     Delta-E=       -0.001897767194 Rises=F Damp=F
 DIIS: error= 7.27D-04 at cycle   4 NSaved=   4.
 NSaved= 4 IEnMin= 4 EnMin= -76.0552697609099     IErMin= 4 ErrMin= 7.27D-04
 ErrMax= 7.27D-04  0.00D+00 EMaxC= 1.00D-01 BMatC= 1.62D-05 BMatP= 3.05D-03
 IDIUse=3 WtCom= 9.93D-01 WtEn= 7.27D-03
 Coeff-Com:  0.666D-02-0.557D-01-0.234D+00 0.128D+01
 Coeff-En:   0.000D+00 0.000D+00 0.000D+00 0.100D+01
 Coeff:      0.661D-02-0.553D-01-0.233D+00 0.128D+01
 Gap=     0.538 Goal=   None    Shift=    0.000
 RMSDP=3.94D-05 MaxDP=7.43D-04 DE=-1.90D-03 OVMax= 2.46D-03

 Cycle   5  Pass 1  IDiag  1:
 E= -76.0552965596191     Delta-E=       -0.000026798709 Rises=F Damp=F
 DIIS: error= 1.99D-04 at cycle   5 NSaved=   5.
 NSaved= 5 IEnMin= 5 EnMin= -76.0552965596191     IErMin= 5 ErrMin= 1.99D-04
 ErrMax= 1.99D-04  0.00D+00 EMaxC= 1.00D-01 BMatC= 7.89D-07 BMatP= 1.62D-05
 IDIUse=3 WtCom= 9.98D-01 WtEn= 1.99D-03
 Coeff-Com:  0.519D-03 0.990D-03-0.100D-02-0.267D+00 0.127D+01
 Coeff-En:   0.000D+00 0.000D+00 0.000D+00 0.000D+00 0.100D+01
 Coeff:      0.518D-03 0.988D-03-0.100D-02-0.266D+00 0.127D+01
 Gap=     0.539 Goal=   None    Shift=    0.000
 RMSDP=1.23D-05 MaxDP=2.34D-04 DE=-2.68D-05 OVMax= 8.15D-04

 Cycle   6  Pass 1  IDiag  1:
 E= -76.0552985504294     Delta-E=       -0.000001990810 Rises=F Damp=F
 DIIS: error= 3.12D-05 at cycle   6 NSaved=   6.
 NSaved= 6 IEnMin= 6 EnMin= -76.0552985504294     IErMin= 6 ErrMin= 3.12D-05
 ErrMax= 3.12D-05  0.00D+00 EMaxC= 1.00D-01 BMatC= 2.39D-08 BMatP= 7.89D-07
 IDIUse=1 WtCom= 1.00D+00 WtEn= 0.00D+00
 Coeff-Com: -0.309D-03 0.161D-02 0.719D-02 0.103D-01-0.295D+00 0.128D+01
 Coeff:     -0.309D-03 0.161D-02 0.719D-02 0.103D-01-0.295D+00 0.128D+01
 Gap=     0.539 Goal=   None    Shift=    0.000
 RMSDP=2.58D-06 MaxDP=5.56D-05 DE=-1.99D-06 OVMax= 1.81D-04

 Cycle   7  Pass 1  IDiag  1:
 E= -76.0552986251589     Delta-E=       -0.000000074730 Rises=F Damp=F
 DIIS: error= 5.44D-06 at cycle   7 NSaved=   7.
 NSaved= 7 IEnMin= 7 EnMin= -76.0552986251589     IErMin= 7 ErrMin= 5.44D-06
 ErrMax= 5.44D-06  0.00D+00 EMaxC= 1.00D-01 BMatC= 1.31D-09 BMatP= 2.39D-08
 IDIUse=1 WtCom= 1.00D+00 WtEn= 0.00D+00
 Coeff-Com:  0.222D-04-0.354D-03-0.145D-02 0.173D-01-0.347D-01-0.161D+00
 Coeff-Com:  0.118D+01
 Coeff:      0.222D-04-0.354D-03-0.145D-02 0.173D-01-0.347D-01-0.161D+00
 Coeff:      0.118D+01
 Gap=     0.539 Goal=   None    Shift=    0.000
 RMSDP=4.11D-07 MaxDP=9.41D-06 DE=-7.47D-08 OVMax= 3.49D-05

 Cycle   8  Pass 1  IDiag  1:
 E= -76.0552986280598     Delta-E=       -0.000000002901 Rises=F Damp=F
 DIIS: error= 1.39D-06 at cycle   8 NSaved=   8.
 NSaved= 8 IEnMin= 8 EnMin= -76.0552986280598     IErMin= 8 ErrMin= 1.39D-06
 ErrMax= 1.39D-06  0.00D+00 EMaxC= 1.00D-01 BMatC= 6.89D-11 BMatP= 1.31D-09
 IDIUse=1 WtCom= 1.00D+00 WtEn= 0.00D+00
 Coeff-Com:  0.102D-04 0.736D-05 0.585D-04-0.533D-02 0.239D-01-0.139D-01
 Coeff-Com: -0.371D+00 0.137D+01
 Coeff:      0.102D-04 0.736D-05 0.585D-04-0.533D-02 0.239D-01-0.139D-01
 Coeff:     -0.371D+00 0.137D+01
 Gap=     0.539 Goal=   None    Shift=    0.000
 RMSDP=1.30D-07 MaxDP=2.66D-06 DE=-2.90D-09 OVMax= 8.46D-06

 Cycle   9  Pass 1  IDiag  1:
 E= -76.0552986282351     Delta-E=       -0.000000000175 Rises=F Damp=F
 DIIS: error= 2.02D-07 at cycle   9 NSaved=   9.
 NSaved= 9 IEnMin= 9 EnMin= -76.0552986282351     IErMin= 9 ErrMin= 2.02D-07
 ErrMax= 2.02D-07  0.00D+00 EMaxC= 1.00D-01 BMatC= 1.01D-12 BMatP= 6.89D-11
 IDIUse=1 WtCom= 1.00D+00 WtEn= 0.00D+00
 Coeff-Com: -0.194D-05 0.656D-05 0.190D-04 0.396D-03-0.260D-02 0.474D-02
 Coeff-Com:  0.364D-01-0.228D+00 0.119D+01
 Coeff:     -0.194D-05 0.656D-05 0.190D-04 0.396D-03-0.260D-02 0.474D-02
 Coeff:      0.364D-01-0.228D+00 0.119D+01
 Gap=     0.539 Goal=   None    Shift=    0.000
 RMSDP=1.82D-08 MaxDP=3.66D-07 DE=-1.75D-10 OVMax= 8.09D-07

 Cycle  10  Pass 1  IDiag  1:
 E= -76.0552986282373     Delta-E=       -0.000000000002 Rises=F Damp=F
 DIIS: error= 4.15D-08 at cycle  10 NSaved=  10.
 NSaved=10 IEnMin=10 EnMin= -76.0552986282373     IErMin=10 ErrMin= 4.15D-08
 ErrMax= 4.15D-08  0.00D+00 EMaxC= 1.00D-01 BMatC= 4.99D-14 BMatP= 1.01D-12
 IDIUse=1 WtCom= 1.00D+00 WtEn= 0.00D+00
 Coeff-Com: -0.508D-07-0.127D-05-0.500D-05 0.118D-03-0.354D-03-0.371D-03
 Coeff-Com:  0.809D-02-0.171D-01-0.183D+00 0.119D+01
 Coeff:     -0.508D-07-0.127D-05-0.500D-05 0.118D-03-0.354D-03-0.371D-03
 Coeff:      0.809D-02-0.171D-01-0.183D+00 0.119D+01
 Gap=     0.539 Goal=   None    Shift=    0.000
 RMSDP=4.10D-09 MaxDP=6.36D-08 DE=-2.25D-12 OVMax= 1.73D-07

 SCF Done:  E(RHF) =  -76.0552986282     A.U. after   10 cycles
            NFock= 10  Conv=0.41D-08     -V/T= 2.0012
 KE= 7.596284358335D+01 PE=-1.990029220345D+02 EE= 3.779207340822D+01
 Leave Link  502 at Wed Feb  8 13:50:30 2023, MaxMem=   754974720 cpu:               2.2 elap:               0.7
 (Enter /opt/cluster/programs/g16-c.01/g16/l801.exe)
 Windowed orbitals will be sorted by symmetry type.
 ExpMin= 2.53D-02 ExpMax= 1.53D+04 ExpMxC= 5.22D+02 IAcc=3 IRadAn=         5 AccDes= 0.00D+00
 HarFok:  IExCor=  205 AccDes= 0.00D+00 IRadAn=         5 IDoV=-2 UseB2=F ITyADJ=14
 ICtDFT= 12500011 ScaDFX=  1.000000  1.000000  1.000000  1.000000
 Largest valence mixing into a core orbital is  1.10D-04
 Largest core mixing into a valence orbital is  1.70D-05
 Range of M.O.s used for correlation:     2    92
 NBasis=    92 NAE=     5 NBE=     5 NFC=     1 NFV=     0
 NROrb=     91 NOA=     4 NOB=     4 NVA=    87 NVB=    87

 **** Warning!!: The largest alpha MO coefficient is  0.13688392D+02

 Leave Link  801 at Wed Feb  8 13:50:30 2023, MaxMem=   754974720 cpu:               0.3 elap:               0.1
 (Enter /opt/cluster/programs/g16-c.01/g16/l804.exe)
 Closed-shell transformation, MDV=   754974720 ITran=4 ISComp=2.
 Unit  1 TFree=        277501 TCopy=        343607.
 Semi-Direct transformation.
 ModeAB=           2 MOrb=             4 LenV=     754586778
 LASXX=       736380 LTotXX=      736380 LenRXX=      736380
 LTotAB=      763744 MaxLAS=     2025660 LenRXY=     2025660
 NonZer=     2107560 LenScr=     3929600 LnRSAI=           0
 LnScr1=           0 LExtra=           0 Total=      6691640
 MaxDsk=          -1 SrtSym=           F ITran=            4
 DoSDTr:  NPSUse=  4
 JobTyp=0 Pass  1:  I=   1 to   4.
 (rs|ai) integrals will be sorted in core.
 Complete sort for first half transformation.
 First half transformation complete.
 Complete sort for second half transformation.
 Second half transformation complete.
 Spin components of T(2) and E(2):
     alpha-alpha T2 =       0.8112319132D-02 E2=     -0.3253645772D-01
     alpha-beta  T2 =       0.4720128484D-01 E2=     -0.2031319988D+00
     beta-beta   T2 =       0.8112319132D-02 E2=     -0.3253645772D-01
 ANorm=    0.1031225447D+01
 E2 =    -0.2682049142D+00 EUMP2 =    -0.76323503542430D+02
 Leave Link  804 at Wed Feb  8 13:50:35 2023, MaxMem=   754974720 cpu:              10.3 elap:               5.1
 (Enter /opt/cluster/programs/g16-c.01/g16/l913.exe)
 CIDS:  MDV=   754974720.
 Frozen-core window:  NFC=   1 NFV=   0.
 IFCWin=0 IBDFC=1 NFBD=     0     0 NFCmp=     0     0 NFFFC=     0     0
 Using DD3R+UMP44R for 1st iteration.
 Using DD4RQ for 2nd and later iterations.
 Keep R2 and R3 ints in memory in symmetry-blocked form, NReq=13979827.
 FoFCou: FMM=F IPFlag=           0 FMFlag=           0 FMFlg1=           0
         NFxFlg=           0 DoJE=F BraDBF=F KetDBF=F FulRan=T
         wScrn=  0.000000 ICntrl=       600 IOpCl=  0 I1Cent=           0 NGrid=           0
         NMat0=    1 NMatS0=   4278 NMatT0=    0 NMatD0=    1 NMtDS0=    0 NMtDT0=    0
 Petite list used in FoFCou.
 CIDS: In Core Option IDoMem=           1.
 CCSD(T)
 =======
 Iterations=  50 Convergence= 0.100D-06
 Produce multiple copies of IABC intergrals
 Iteration Nr.   1
 **********************
 DD1Dir will call FoFMem   1 times, MxPair=        20
 NAB=    10 NAA=     0 NBB=     0.
 MP4(R+Q)=  0.40581147D-02
 Maximum subspace dimension=  5
 A-vector RMS=  2.8528699D-03 Max=  1.2180688D-02 conv= 1.00D-05.
 RLE energy=       -0.2668508809
 E3=       -0.27381796D-02        EUMP3=      -0.76326241722D+02
 E4(DQ)=   -0.62235044D-03        UMP4(DQ)=   -0.76326864072D+02
 E4(SDQ)=  -0.25053279D-02        UMP4(SDQ)=  -0.76328747050D+02
 VARIATIONAL ENERGIES WITH THE FIRST-ORDER WAVEFUNCTION:
 DE(Corr)= -0.26684402     E(Corr)=     -76.322142645    
 NORM(A)=   0.10310712D+01
 Iteration Nr.   2
 **********************
 DD1Dir will call FoFMem   1 times, MxPair=        20
 NAB=    10 NAA=     0 NBB=     0.
 A-vector RMS=  3.0695022D-04 Max=  2.1866650D-03 conv= 1.00D-05.
 RLE energy=       -0.2726230443
 DE(Corr)= -0.27223238     E(CORR)=     -76.327531012     Delta=-5.39D-03
 NORM(A)=   0.10331916D+01
 Iteration Nr.   3
 **********************
 DD1Dir will call FoFMem   1 times, MxPair=        20
 NAB=    10 NAA=     0 NBB=     0.
 A-vector RMS=  3.9903489D-04 Max=  2.2435815D-03 conv= 1.00D-05.
 RLE energy=       -0.2729340341
 DE(Corr)= -0.27255998     E(CORR)=     -76.327858605     Delta=-3.28D-04
 NORM(A)=   0.10336099D+01
 Iteration Nr.   4
 **********************
 DD1Dir will call FoFMem   1 times, MxPair=        20
 NAB=    10 NAA=     0 NBB=     0.
 A-vector RMS=  6.1476679D-05 Max=  3.7788358D-04 conv= 1.00D-05.
 RLE energy=       -0.2729672311
 DE(Corr)= -0.27293933     E(CORR)=     -76.328237954     Delta=-3.79D-04
 NORM(A)=   0.10337221D+01
 Iteration Nr.   5
 **********************
 DD1Dir will call FoFMem   1 times, MxPair=        20
 NAB=    10 NAA=     0 NBB=     0.
 A-vector RMS=  3.0297289D-05 Max=  1.9198984D-04 conv= 1.00D-05.
 RLE energy=       -0.2729792287
 DE(Corr)= -0.27297390     E(CORR)=     -76.328272528     Delta=-3.46D-05
 NORM(A)=   0.10337446D+01
 Iteration Nr.   6
 **********************
 DD1Dir will call FoFMem   1 times, MxPair=        20
 NAB=    10 NAA=     0 NBB=     0.
 A-vector RMS=  7.0772413D-06 Max=  4.0252711D-05 conv= 1.00D-05.
 RLE energy=       -0.2729756550
 DE(Corr)= -0.27297658     E(CORR)=     -76.328275211     Delta=-2.68D-06
 NORM(A)=   0.10337465D+01
 Iteration Nr.   7
 **********************
 DD1Dir will call FoFMem   1 times, MxPair=        20
 NAB=    10 NAA=     0 NBB=     0.
 A-vector RMS=  2.5541139D-06 Max=  1.2395153D-05 conv= 1.00D-05.
 RLE energy=       -0.2729756705
 DE(Corr)= -0.27297658     E(CORR)=     -76.328275203     Delta= 7.24D-09
 NORM(A)=   0.10337471D+01
 Iteration Nr.   8
 **********************
 DD1Dir will call FoFMem   1 times, MxPair=        20
 NAB=    10 NAA=     0 NBB=     0.
 A-vector RMS=  9.6981980D-07 Max=  5.0162647D-06 conv= 1.00D-05.
 RLE energy=       -0.2729762180
 DE(Corr)= -0.27297633     E(CORR)=     -76.328274955     Delta= 2.48D-07
 NORM(A)=   0.10337475D+01
 Iteration Nr.   9
 **********************
 DD1Dir will call FoFMem   1 times, MxPair=        20
 NAB=    10 NAA=     0 NBB=     0.
 A-vector RMS=  2.6586808D-07 Max=  1.4439962D-06 conv= 1.00D-05.
 RLE energy=       -0.2729763222
 DE(Corr)= -0.27297634     E(CORR)=     -76.328274967     Delta=-1.13D-08
 NORM(A)=   0.10337477D+01
 CI/CC converged in    9 iterations to DelEn=-1.13D-08 Conv= 1.00D-07 ErrA1= 2.66D-07 Conv= 1.00D-05
 Wavefunction amplitudes converged. E(Corr)=     -76.328274967    
 Largest amplitude= 1.96D-02
 IPart=  1 IA=    6   11.23% done.
 IPart=  3 IA=   11   21.79% done.
 IPart=  3 IA=   16   31.68% done.
 IPart=  1 IA=   21   40.90% done.
 IPart=  3 IA=   27   51.08% done.
 IPart=  2 IA=   33   60.30% done.
 IPart=  2 IA=   41   71.10% done.
 IPart=  2 IA=   49   80.19% done.
 IPart=  4 IA=   61   90.62% done.
 Time for triples=        6.27 seconds.
 T4(CCSD)= -0.89454594D-02
 T5(CCSD)=  0.32074755D-03
 CCSD(T)= -0.76336899679D+02
 Discarding MO integrals.
 Leave Link  913 at Wed Feb  8 13:50:38 2023, MaxMem=   754974720 cpu:              12.4 elap:               3.1
 (Enter /opt/cluster/programs/g16-c.01/g16/l601.exe)
 Copying SCF densities to generalized density rwf, IOpCl= 0 IROHF=0.

 **********************************************************************

            Population analysis using the SCF Density.

 **********************************************************************

 Orbital symmetries:
       Occupied  (A') (A') (A') (A') (A")
       Virtual   (A') (A') (A') (A") (A') (A') (A') (A') (A") (A")
                 (A') (A') (A') (A') (A') (A') (A') (A") (A") (A')
                 (A") (A') (A') (A") (A") (A') (A') (A') (A') (A")
                 (A') (A") (A') (A') (A") (A') (A") (A') (A') (A')
                 (A') (A") (A') (A") (A') (A") (A') (A') (A') (A")
                 (A') (A') (A") (A') (A') (A") (A") (A') (A') (A")
                 (A") (A") (A') (A') (A') (A') (A') (A") (A') (A')
                 (A") (A') (A') (A') (A") (A') (A") (A") (A') (A")
                 (A') (A") (A') (A') (A') (A') (A')
 The electronic state is 1-A'.
 Alpha  occ. eigenvalues --  -20.56518  -1.35235  -0.72498  -0.57622  -0.50924
 Alpha virt. eigenvalues --    0.02954   0.04747   0.13626   0.15776   0.17304
 Alpha virt. eigenvalues --    0.18249   0.22825   0.24466   0.26388   0.30494
 Alpha virt. eigenvalues --    0.31304   0.36525   0.43255   0.47053   0.60208
 Alpha virt. eigenvalues --    0.65556   0.71149   0.72034   0.73141   0.82624
 Alpha virt. eigenvalues --    0.84383   0.88771   0.91151   0.91953   0.92396
 Alpha virt. eigenvalues --    0.92914   0.97126   1.01236   1.06241   1.08336
 Alpha virt. eigenvalues --    1.11460   1.17215   1.17252   1.26701   1.50873
 Alpha virt. eigenvalues --    1.56462   1.60170   1.77324   1.80367   1.96380
 Alpha virt. eigenvalues --    2.14483   2.25744   2.31396   2.32138   2.40367
 Alpha virt. eigenvalues --    2.41307   2.42650   2.51277   2.70221   2.70225
 Alpha virt. eigenvalues --    2.76257   2.86885   2.87424   3.61005   3.78852
 Alpha virt. eigenvalues --    4.00188   4.09957   4.16699   4.26734   4.33563
 Alpha virt. eigenvalues --    4.38139   4.40126   4.41322   4.49171   4.68694
 Alpha virt. eigenvalues --    4.79751   5.06792   5.12143   5.27352   5.44075
 Alpha virt. eigenvalues --    5.55663   5.73433   6.15039   6.54719   6.71047
 Alpha virt. eigenvalues --    6.85113   7.09923   7.20508   7.27784   7.33719
 Alpha virt. eigenvalues --    7.40101   7.43377   7.61143   7.85021   8.03518
 Alpha virt. eigenvalues --    8.74405  15.99068
          Condensed to atoms (all electrons):
               1          2          3
     1  O    7.887165   0.271013   0.272491
     2  H    0.271013   0.539895   0.018562
     3  H    0.272491   0.018562   0.448808
 Mulliken charges:
               1
     1  O   -0.430669
     2  H    0.170530
     3  H    0.260139
 Sum of Mulliken charges =  -0.00000
 Mulliken charges with hydrogens summed into heavy atoms:
               1
     1  O   -0.000000
 Electronic spatial extent (au):  <R**2>=             19.5082
 Charge=             -0.0000 electrons
 Dipole moment (field-independent basis, Debye):
    X=              0.0389    Y=             -1.9209    Z=              0.0000  Tot=              1.9213
 Quadrupole moment (field-independent basis, Debye-Ang):
   XX=             -4.0920   YY=             -6.3287   ZZ=             -7.5667
   XY=              0.3028   XZ=              0.0000   YZ=              0.0000
 Traceless Quadrupole moment (field-independent basis, Debye-Ang):
   XX=              1.9037   YY=             -0.3329   ZZ=             -1.5709
   XY=              0.3028   XZ=              0.0000   YZ=              0.0000
 Octapole moment (field-independent basis, Debye-Ang**2):
  XXX=              0.1328  YYY=             -1.0942  ZZZ=              0.0000  XYY=             -0.2075
  XXY=             -1.4065  XXZ=              0.0000  XZZ=              0.0518  YZZ=             -0.2406
  YYZ=              0.0000  XYZ=              0.0000
 Hexadecapole moment (field-independent basis, Debye-Ang**3):
 XXXX=             -5.8296 YYYY=             -7.2670 ZZZZ=             -6.7542 XXXY=              0.0178
 XXXZ=              0.0000 YYYX=              0.0094 YYYZ=              0.0000 ZZZX=              0.0000
 ZZZY=              0.0000 XXYY=             -1.8731 XXZZ=             -2.4603 YYZZ=             -2.3864
 XXYZ=              0.0000 YYXZ=              0.0000 ZZXY=             -0.0715
 N-N= 9.192706414697D+00 E-N=-1.990029217386D+02  KE= 7.596284358335D+01
 Symmetry A'   KE= 7.149869621273D+01
 Symmetry A"   KE= 4.464147370619D+00
 Leave Link  601 at Wed Feb  8 13:50:39 2023, MaxMem=   754974720 cpu:               0.7 elap:               0.4
 (Enter /opt/cluster/programs/g16-c.01/g16/l9999.exe)
 Unable to Open any file for archive entry.
 1\1\GINC-NODE60\SP\RCCSD(T)-FC\Aug-CC-pVTZ\H2O1\BOITTIER\08-Feb-2023\0
 \\#P CCSD(T)/aug-cc-pVTZ scf(maxcycle=200)\\Gaussian input\\0,1\O,0,0.
 ,0.11751,0.\H,0,0.7183372325,-0.4395112028,0.\H,0,-0.8388659611,-0.443
 190365,0.\\Version=ES64L-G16RevC.01\State=1-A'\HF=-76.0552986\MP2=-76.
 3235035\MP3=-76.3262417\MP4D=-76.3309222\MP4DQ=-76.3268641\MP4SDQ=-76.
 328747\CCSD=-76.328275\CCSD(T)=-76.3368997\RMSD=4.097e-09\PG=CS [SG(H2
 O1)]\\@
 The archive entry for this job was punched.


 HONESTY IN A LAWYER IS LIKE A HEN'S HIND LEGS.
  -- MAGNUS OLESON, LAKE WOBEGON PATRIARCH, C.1875
 Job cpu time:       0 days  0 hours  0 minutes 32.3 seconds.
 Elapsed time:       0 days  0 hours  0 minutes 11.7 seconds.
 File lengths (MBytes):  RWF=     75 Int=      0 D2E=      0 Chk=      2 Scr=      1
 Normal termination of Gaussian 16 at Wed Feb  8 13:50:39 2023.
