 Entering Gaussian System, Link 0=/opt/cluster/programs/g16-c.01/g16/g16
 Input=/scratch/boittier/jobs/tmp.7262588/gaussian_63_water_hf_pdz.com
 Output=/scratch/boittier/jobs/tmp.7262588/gaussian_63_water_hf_pdz.out
 Initial command:
 /opt/cluster/programs/g16-c.01/g16/l1.exe "/scratch/boittier/jobs/tmp.7262588/Gau-106735.inp" -scrdir="/scratch/boittier/jobs/tmp.7262588/"
 Entering Link 1 = /opt/cluster/programs/g16-c.01/g16/l1.exe PID=    106736.
  
 Copyright (c) 1988-2019, Gaussian, Inc.  All Rights Reserved.
  
 This is part of the Gaussian(R) 16 program.  It is based on
 the Gaussian(R) 09 system (copyright 2009, Gaussian, Inc.),
 the Gaussian(R) 03 system (copyright 2003, Gaussian, Inc.),
 the Gaussian(R) 98 system (copyright 1998, Gaussian, Inc.),
 the Gaussian(R) 94 system (copyright 1995, Gaussian, Inc.),
 the Gaussian 92(TM) system (copyright 1992, Gaussian, Inc.),
 the Gaussian 90(TM) system (copyright 1990, Gaussian, Inc.),
 the Gaussian 88(TM) system (copyright 1988, Gaussian, Inc.),
 the Gaussian 86(TM) system (copyright 1986, Carnegie Mellon
 University), and the Gaussian 82(TM) system (copyright 1983,
 Carnegie Mellon University). Gaussian is a federally registered
 trademark of Gaussian, Inc.
  
 This software contains proprietary and confidential information,
 including trade secrets, belonging to Gaussian, Inc.
  
 This software is provided under written license and may be
 used, copied, transmitted, or stored only in accord with that
 written license.
  
 The following legend is applicable only to US Government
 contracts under FAR:
  
                    RESTRICTED RIGHTS LEGEND
  
 Use, reproduction and disclosure by the US Government is
 subject to restrictions as set forth in subparagraphs (a)
 and (c) of the Commercial Computer Software - Restricted
 Rights clause in FAR 52.227-19.
  
 Gaussian, Inc.
 340 Quinnipiac St., Bldg. 40, Wallingford CT 06492
  
  
 ---------------------------------------------------------------
 Warning -- This program may not be used in any manner that
 competes with the business of Gaussian, Inc. or will provide
 assistance to any competitor of Gaussian, Inc.  The licensee
 of this program is prohibited from giving any competitor of
 Gaussian, Inc. access to this program.  By using this program,
 the user acknowledges that Gaussian, Inc. is engaged in the
 business of creating and licensing software in the field of
 computational chemistry and represents and warrants to the
 licensee that it is not a competitor of Gaussian, Inc. and that
 it will not use this program in any manner prohibited above.
 ---------------------------------------------------------------
  

 Cite this work as:
 Gaussian 16, Revision C.01,
 M. J. Frisch, G. W. Trucks, H. B. Schlegel, G. E. Scuseria, 
 M. A. Robb, J. R. Cheeseman, G. Scalmani, V. Barone, 
 G. A. Petersson, H. Nakatsuji, X. Li, M. Caricato, A. V. Marenich, 
 J. Bloino, B. G. Janesko, R. Gomperts, B. Mennucci, H. P. Hratchian, 
 J. V. Ortiz, A. F. Izmaylov, J. L. Sonnenberg, D. Williams-Young, 
 F. Ding, F. Lipparini, F. Egidi, J. Goings, B. Peng, A. Petrone, 
 T. Henderson, D. Ranasinghe, V. G. Zakrzewski, J. Gao, N. Rega, 
 G. Zheng, W. Liang, M. Hada, M. Ehara, K. Toyota, R. Fukuda, 
 J. Hasegawa, M. Ishida, T. Nakajima, Y. Honda, O. Kitao, H. Nakai, 
 T. Vreven, K. Throssell, J. A. Montgomery, Jr., J. E. Peralta, 
 F. Ogliaro, M. J. Bearpark, J. J. Heyd, E. N. Brothers, K. N. Kudin, 
 V. N. Staroverov, T. A. Keith, R. Kobayashi, J. Normand, 
 K. Raghavachari, A. P. Rendell, J. C. Burant, S. S. Iyengar, 
 J. Tomasi, M. Cossi, J. M. Millam, M. Klene, C. Adamo, R. Cammi, 
 J. W. Ochterski, R. L. Martin, K. Morokuma, O. Farkas, 
 J. B. Foresman, and D. J. Fox, Gaussian, Inc., Wallingford CT, 2019.
 
 ******************************************
 Gaussian 16:  ES64L-G16RevC.01  3-Jul-2019
                 8-Feb-2023 
 ******************************************
 %nproc=4
 Will use up to    4 processors via shared memory.
 %mem=5760MB
 %chk=gaussian_63_water_hf_pdz.chk
 ------------------------------
 #P HF/6-31g* scf(maxcycle=200)
 ------------------------------
 1/38=1,172=1/1;
 2/12=2,17=6,18=5,40=1/2;
 3/5=1,6=6,7=1,11=9,25=1,30=1/1,2,3;
 4//1;
 5/5=2,7=200,38=5/2;
 6/7=2,8=2,9=2,10=2,28=1/1;
 99/5=1,9=1/99;
 Leave Link    1 at Wed Feb  8 15:05:39 2023, MaxMem=   754974720 cpu:               0.1 elap:               0.0
 (Enter /opt/cluster/programs/g16-c.01/g16/l101.exe)
 --------------
 Gaussian input
 --------------
 Symbolic Z-matrix:
 Charge =  0 Multiplicity = 1
 O                     0.        0.11751   0. 
 H                     0.75785  -0.47015   0. 
 H                    -0.56265  -0.59643   0. 
 
 ITRead=  0  0  0
 MicOpt= -1 -1 -1
 NAtoms=      3 NQM=        3 NQMF=       0 NMMI=      0 NMMIF=      0
                NMic=       0 NMicF=      0.
                    Isotopes and Nuclear Properties:
 (Nuclear quadrupole moments (NQMom) in fm**2, nuclear magnetic moments (NMagM)
  in nuclear magnetons)

  Atom         1           2           3
 IAtWgt=          16           1           1
 AtmWgt=  15.9949146   1.0078250   1.0078250
 NucSpn=           0           1           1
 AtZEff=  -0.0000000  -0.0000000  -0.0000000
 NQMom=    0.0000000   0.0000000   0.0000000
 NMagM=    0.0000000   2.7928460   2.7928460
 AtZNuc=   8.0000000   1.0000000   1.0000000
 Leave Link  101 at Wed Feb  8 15:05:39 2023, MaxMem=   754974720 cpu:               0.8 elap:               0.2
 (Enter /opt/cluster/programs/g16-c.01/g16/l202.exe)
                          Input orientation:                          
 ---------------------------------------------------------------------
 Center     Atomic      Atomic             Coordinates (Angstroms)
 Number     Number       Type             X           Y           Z
 ---------------------------------------------------------------------
      1          8           0        0.000000    0.117510    0.000000
      2          1           0        0.757850   -0.470150    0.000000
      3          1           0       -0.562646   -0.596430    0.000000
 ---------------------------------------------------------------------
                    Distance matrix (angstroms):
                    1          2          3
     1  O    0.000000
     2  H    0.959000   0.000000
     3  H    0.909000   1.326520   0.000000
 Stoichiometry    H2O
 Framework group  CS[SG(H2O)]
 Deg. of freedom     3
 Full point group                 CS      NOp   2
 Largest Abelian subgroup         CS      NOp   2
 Largest concise Abelian subgroup C1      NOp   1
                         Standard orientation:                         
 ---------------------------------------------------------------------
 Center     Atomic      Atomic             Coordinates (Angstroms)
 Number     Number       Type             X           Y           Z
 ---------------------------------------------------------------------
      1          8           0        0.000000    0.131616   -0.000000
      2          1           0        0.662310   -0.561945   -0.000000
      3          1           0       -0.662310   -0.490981    0.000000
 ---------------------------------------------------------------------
 Rotational constants (GHZ):         665.2103399         560.1603105         304.0911992
 Leave Link  202 at Wed Feb  8 15:05:39 2023, MaxMem=   754974720 cpu:               0.1 elap:               0.0
 (Enter /opt/cluster/programs/g16-c.01/g16/l301.exe)
 Standard basis: 6-31G(d) (6D, 7F)
 Ernie: Thresh=  0.10000D-02 Tol=  0.10000D-05 Strict=F.
 There are    15 symmetry adapted cartesian basis functions of A'  symmetry.
 There are     4 symmetry adapted cartesian basis functions of A"  symmetry.
 There are    15 symmetry adapted basis functions of A'  symmetry.
 There are     4 symmetry adapted basis functions of A"  symmetry.
    19 basis functions,    36 primitive gaussians,    19 cartesian basis functions
     5 alpha electrons        5 beta electrons
       nuclear repulsion energy         9.4705550460 Hartrees.
 IExCor=    0 DFT=F Ex=HF Corr=None ExCW=0 ScaHFX=  1.000000
 ScaDFX=  1.000000  1.000000  1.000000  1.000000 ScalE2=  1.000000  1.000000
 IRadAn=      5 IRanWt=     -1 IRanGd=            0 ICorTp=0 IEmpDi=  4
 NAtoms=    3 NActive=    3 NUniq=    3 SFac= 1.00D+00 NAtFMM=   60 NAOKFM=F Big=F
 Integral buffers will be    131072 words long.
 Raffenetti 1 integral format.
 Two-electron integral symmetry is turned on.
 Leave Link  301 at Wed Feb  8 15:05:39 2023, MaxMem=   754974720 cpu:               0.2 elap:               0.1
 (Enter /opt/cluster/programs/g16-c.01/g16/l302.exe)
 NPDir=0 NMtPBC=     1 NCelOv=     1 NCel=       1 NClECP=     1 NCelD=      1
         NCelK=      1 NCelE2=     1 NClLst=     1 CellRange=     0.0.
 One-electron integrals computed using PRISM.
 One-electron integral symmetry used in STVInt
 NBasis=    19 RedAO= T EigKep=  2.14D-02  NBF=    15     4
 NBsUse=    19 1.00D-06 EigRej= -1.00D+00 NBFU=    15     4
 Leave Link  302 at Wed Feb  8 15:05:39 2023, MaxMem=   754974720 cpu:               0.5 elap:               0.2
 (Enter /opt/cluster/programs/g16-c.01/g16/l303.exe)
 DipDrv:  MaxL=1.
 Leave Link  303 at Wed Feb  8 15:05:40 2023, MaxMem=   754974720 cpu:               0.2 elap:               0.0
 (Enter /opt/cluster/programs/g16-c.01/g16/l401.exe)
 ExpMin= 1.61D-01 ExpMax= 5.48D+03 ExpMxC= 8.25D+02 IAcc=3 IRadAn=         5 AccDes= 0.00D+00
 Harris functional with IExCor=  205 and IRadAn=       5 diagonalized for initial guess.
 HarFok:  IExCor=  205 AccDes= 0.00D+00 IRadAn=         5 IDoV= 1 UseB2=F ITyADJ=14
 ICtDFT=  3500011 ScaDFX=  1.000000  1.000000  1.000000  1.000000
 FoFCou: FMM=F IPFlag=           0 FMFlag=      100000 FMFlg1=           0
         NFxFlg=           0 DoJE=T BraDBF=F KetDBF=T FulRan=T
         wScrn=  0.000000 ICntrl=       500 IOpCl=  0 I1Cent=   200000004 NGrid=           0
         NMat0=    1 NMatS0=      1 NMatT0=    0 NMatD0=    1 NMtDS0=    0 NMtDT0=    0
 Petite list used in FoFCou.
 Harris En= -76.0936898637212    
 JPrj=0 DoOrth=F DoCkMO=F.
 Initial guess orbital symmetries:
       Occupied  (A') (A') (A') (A') (A")
       Virtual   (A') (A') (A') (A') (A") (A') (A') (A') (A') (A")
                 (A") (A') (A') (A')
 The electronic state of the initial guess is 1-A'.
 Leave Link  401 at Wed Feb  8 15:05:40 2023, MaxMem=   754974720 cpu:               0.8 elap:               0.2
 (Enter /opt/cluster/programs/g16-c.01/g16/l502.exe)
 Keep R1 ints in memory in symmetry-blocked form, NReq=845369.
 FoFCou: FMM=F IPFlag=           0 FMFlag=           0 FMFlg1=           0
         NFxFlg=           0 DoJE=F BraDBF=F KetDBF=F FulRan=T
         wScrn=  0.000000 ICntrl=       600 IOpCl=  0 I1Cent=           0 NGrid=           0
         NMat0=    1 NMatS0=    190 NMatT0=    0 NMatD0=    1 NMtDS0=    0 NMtDT0=    0
 Petite list used in FoFCou.
 Closed shell SCF:
 Using DIIS extrapolation, IDIIS=  1040.
 NGot=   754974720 LenX=   754962225 LenY=   754961343
 Requested convergence on RMS density matrix=1.00D-08 within 200 cycles.
 Requested convergence on MAX density matrix=1.00D-06.
 Requested convergence on             energy=1.00D-06.
 No special actions if energy rises.

 Cycle   1  Pass 1  IDiag  1:
 E= -75.9151325130172    
 DIIS: error= 7.85D-02 at cycle   1 NSaved=   1.
 NSaved= 1 IEnMin= 1 EnMin= -75.9151325130172     IErMin= 1 ErrMin= 7.85D-02
 ErrMax= 7.85D-02  0.00D+00 EMaxC= 1.00D-01 BMatC= 1.37D-01 BMatP= 1.37D-01
 IDIUse=3 WtCom= 2.15D-01 WtEn= 7.85D-01
 Coeff-Com:  0.100D+01
 Coeff-En:   0.100D+01
 Coeff:      0.100D+01
 Gap=     0.590 Goal=   None    Shift=    0.000
 GapD=    0.590 DampG=2.000 DampE=0.500 DampFc=1.0000 IDamp=-1.
 RMSDP=1.59D-02 MaxDP=1.20D-01              OVMax= 1.29D-01

 Cycle   2  Pass 1  IDiag  1:
 E= -75.9739419712773     Delta-E=       -0.058809458260 Rises=F Damp=F
 DIIS: error= 5.16D-02 at cycle   2 NSaved=   2.
 NSaved= 2 IEnMin= 2 EnMin= -75.9739419712773     IErMin= 2 ErrMin= 5.16D-02
 ErrMax= 5.16D-02  0.00D+00 EMaxC= 1.00D-01 BMatC= 4.19D-02 BMatP= 1.37D-01
 IDIUse=3 WtCom= 4.84D-01 WtEn= 5.16D-01
 Coeff-Com:  0.338D+00 0.662D+00
 Coeff-En:   0.889D-01 0.911D+00
 Coeff:      0.209D+00 0.791D+00
 Gap=     0.739 Goal=   None    Shift=    0.000
 RMSDP=7.87D-03 MaxDP=5.95D-02 DE=-5.88D-02 OVMax= 5.06D-02

 Cycle   3  Pass 1  IDiag  1:
 E= -75.9994526926890     Delta-E=       -0.025510721412 Rises=F Damp=F
 DIIS: error= 1.22D-02 at cycle   3 NSaved=   3.
 NSaved= 3 IEnMin= 3 EnMin= -75.9994526926890     IErMin= 3 ErrMin= 1.22D-02
 ErrMax= 1.22D-02  0.00D+00 EMaxC= 1.00D-01 BMatC= 2.55D-03 BMatP= 4.19D-02
 IDIUse=3 WtCom= 8.78D-01 WtEn= 1.22D-01
 Coeff-Com: -0.265D-01 0.170D+00 0.857D+00
 Coeff-En:   0.000D+00 0.000D+00 0.100D+01
 Coeff:     -0.232D-01 0.149D+00 0.874D+00
 Gap=     0.710 Goal=   None    Shift=    0.000
 RMSDP=1.57D-03 MaxDP=1.26D-02 DE=-2.55D-02 OVMax= 1.36D-02

 Cycle   4  Pass 1  IDiag  1:
 E= -76.0012648796645     Delta-E=       -0.001812186976 Rises=F Damp=F
 DIIS: error= 1.55D-03 at cycle   4 NSaved=   4.
 NSaved= 4 IEnMin= 4 EnMin= -76.0012648796645     IErMin= 4 ErrMin= 1.55D-03
 ErrMax= 1.55D-03  0.00D+00 EMaxC= 1.00D-01 BMatC= 2.39D-05 BMatP= 2.55D-03
 IDIUse=3 WtCom= 9.84D-01 WtEn= 1.55D-02
 Coeff-Com:  0.618D-02-0.768D-01-0.238D+00 0.131D+01
 Coeff-En:   0.000D+00 0.000D+00 0.000D+00 0.100D+01
 Coeff:      0.609D-02-0.756D-01-0.234D+00 0.130D+01
 Gap=     0.714 Goal=   None    Shift=    0.000
 RMSDP=2.16D-04 MaxDP=2.06D-03 DE=-1.81D-03 OVMax= 1.67D-03

 Cycle   5  Pass 1  IDiag  1:
 E= -76.0012856242246     Delta-E=       -0.000020744560 Rises=F Damp=F
 DIIS: error= 1.39D-04 at cycle   5 NSaved=   5.
 NSaved= 5 IEnMin= 5 EnMin= -76.0012856242246     IErMin= 5 ErrMin= 1.39D-04
 ErrMax= 1.39D-04  0.00D+00 EMaxC= 1.00D-01 BMatC= 1.35D-07 BMatP= 2.39D-05
 IDIUse=3 WtCom= 9.99D-01 WtEn= 1.39D-03
 Coeff-Com: -0.312D-03 0.925D-02 0.212D-01-0.244D+00 0.121D+01
 Coeff-En:   0.000D+00 0.000D+00 0.000D+00 0.000D+00 0.100D+01
 Coeff:     -0.311D-03 0.924D-02 0.211D-01-0.244D+00 0.121D+01
 Gap=     0.715 Goal=   None    Shift=    0.000
 RMSDP=3.53D-05 MaxDP=2.67D-04 DE=-2.07D-05 OVMax= 2.84D-04

 Cycle   6  Pass 1  IDiag  1:
 E= -76.0012859274677     Delta-E=       -0.000000303243 Rises=F Damp=F
 DIIS: error= 2.19D-05 at cycle   6 NSaved=   6.
 NSaved= 6 IEnMin= 6 EnMin= -76.0012859274677     IErMin= 6 ErrMin= 2.19D-05
 ErrMax= 2.19D-05  0.00D+00 EMaxC= 1.00D-01 BMatC= 4.29D-09 BMatP= 1.35D-07
 IDIUse=1 WtCom= 1.00D+00 WtEn= 0.00D+00
 Coeff-Com: -0.189D-03 0.147D-02 0.586D-02-0.106D-01-0.227D+00 0.123D+01
 Coeff:     -0.189D-03 0.147D-02 0.586D-02-0.106D-01-0.227D+00 0.123D+01
 Gap=     0.715 Goal=   None    Shift=    0.000
 RMSDP=7.95D-06 MaxDP=5.12D-05 DE=-3.03D-07 OVMax= 6.23D-05

 Cycle   7  Pass 1  IDiag  1:
 E= -76.0012859373905     Delta-E=       -0.000000009923 Rises=F Damp=F
 DIIS: error= 2.90D-06 at cycle   7 NSaved=   7.
 NSaved= 7 IEnMin= 7 EnMin= -76.0012859373905     IErMin= 7 ErrMin= 2.90D-06
 ErrMax= 2.90D-06  0.00D+00 EMaxC= 1.00D-01 BMatC= 1.09D-10 BMatP= 4.29D-09
 IDIUse=1 WtCom= 1.00D+00 WtEn= 0.00D+00
 Coeff-Com:  0.622D-04-0.663D-03-0.228D-02 0.932D-02 0.404D-01-0.349D+00
 Coeff-Com:  0.130D+01
 Coeff:      0.622D-04-0.663D-03-0.228D-02 0.932D-02 0.404D-01-0.349D+00
 Coeff:      0.130D+01
 Gap=     0.715 Goal=   None    Shift=    0.000
 RMSDP=8.92D-07 MaxDP=7.47D-06 DE=-9.92D-09 OVMax= 7.92D-06

 Cycle   8  Pass 1  IDiag  1:
 E= -76.0012859376209     Delta-E=       -0.000000000230 Rises=F Damp=F
 DIIS: error= 6.82D-07 at cycle   8 NSaved=   8.
 NSaved= 8 IEnMin= 8 EnMin= -76.0012859376209     IErMin= 8 ErrMin= 6.82D-07
 ErrMax= 6.82D-07  0.00D+00 EMaxC= 1.00D-01 BMatC= 4.55D-12 BMatP= 1.09D-10
 IDIUse=1 WtCom= 1.00D+00 WtEn= 0.00D+00
 Coeff-Com: -0.754D-05 0.112D-03 0.343D-03-0.221D-02 0.117D-02 0.336D-01
 Coeff-Com: -0.339D+00 0.131D+01
 Coeff:     -0.754D-05 0.112D-03 0.343D-03-0.221D-02 0.117D-02 0.336D-01
 Coeff:     -0.339D+00 0.131D+01
 Gap=     0.715 Goal=   None    Shift=    0.000
 RMSDP=2.25D-07 MaxDP=1.44D-06 DE=-2.30D-10 OVMax= 1.85D-06

 Cycle   9  Pass 1  IDiag  1:
 E= -76.0012859376324     Delta-E=       -0.000000000012 Rises=F Damp=F
 DIIS: error= 9.54D-08 at cycle   9 NSaved=   9.
 NSaved= 9 IEnMin= 9 EnMin= -76.0012859376324     IErMin= 9 ErrMin= 9.54D-08
 ErrMax= 9.54D-08  0.00D+00 EMaxC= 1.00D-01 BMatC= 1.17D-13 BMatP= 4.55D-12
 IDIUse=1 WtCom= 1.00D+00 WtEn= 0.00D+00
 Coeff-Com: -0.310D-06-0.581D-05-0.838D-05 0.254D-03-0.173D-02 0.293D-02
 Coeff-Com:  0.482D-01-0.358D+00 0.131D+01
 Coeff:     -0.310D-06-0.581D-05-0.838D-05 0.254D-03-0.173D-02 0.293D-02
 Coeff:      0.482D-01-0.358D+00 0.131D+01
 Gap=     0.715 Goal=   None    Shift=    0.000
 RMSDP=4.74D-08 MaxDP=2.84D-07 DE=-1.16D-11 OVMax= 4.41D-07

 Cycle  10  Pass 1  IDiag  1:
 E= -76.0012859376327     Delta-E=       -0.000000000000 Rises=F Damp=F
 DIIS: error= 1.29D-08 at cycle  10 NSaved=  10.
 NSaved=10 IEnMin=10 EnMin= -76.0012859376327     IErMin=10 ErrMin= 1.29D-08
 ErrMax= 1.29D-08  0.00D+00 EMaxC= 1.00D-01 BMatC= 2.21D-15 BMatP= 1.17D-13
 IDIUse=1 WtCom= 1.00D+00 WtEn= 0.00D+00
 Coeff-Com:  0.221D-06-0.192D-05-0.696D-05 0.169D-04 0.205D-03-0.117D-02
 Coeff-Com:  0.232D-02 0.904D-02-0.149D+00 0.114D+01
 Coeff:      0.221D-06-0.192D-05-0.696D-05 0.169D-04 0.205D-03-0.117D-02
 Coeff:      0.232D-02 0.904D-02-0.149D+00 0.114D+01
 Gap=     0.715 Goal=   None    Shift=    0.000
 RMSDP=5.29D-09 MaxDP=2.52D-08 DE=-3.13D-13 OVMax= 5.18D-08

 SCF Done:  E(RHF) =  -76.0012859376     A.U. after   10 cycles
            NFock= 10  Conv=0.53D-08     -V/T= 2.0007
 KE= 7.594905589057D+01 PE=-1.994309579898D+02 EE= 3.801006111560D+01
 Leave Link  502 at Wed Feb  8 15:05:40 2023, MaxMem=   754974720 cpu:               0.7 elap:               0.2
 (Enter /opt/cluster/programs/g16-c.01/g16/l601.exe)
 Copying SCF densities to generalized density rwf, IOpCl= 0 IROHF=0.

 **********************************************************************

            Population analysis using the SCF Density.

 **********************************************************************

 Orbital symmetries:
       Occupied  (A') (A') (A') (A') (A")
       Virtual   (A') (A') (A') (A') (A") (A') (A') (A') (A') (A")
                 (A") (A') (A') (A')
 The electronic state is 1-A'.
 Alpha  occ. eigenvalues --  -20.56253  -1.36884  -0.68987  -0.60481  -0.50484
 Alpha virt. eigenvalues --    0.20992   0.30996   0.98059   1.12851   1.16421
 Alpha virt. eigenvalues --    1.24670   1.38246   1.48832   1.98188   2.03944
 Alpha virt. eigenvalues --    2.04758   2.68683   2.93432   3.95238
          Condensed to atoms (all electrons):
               1          2          3
     1  O    8.306030   0.266671   0.270149
     2  H    0.266671   0.344102  -0.029322
     3  H    0.270149  -0.029322   0.334872
 Mulliken charges:
               1
     1  O   -0.842850
     2  H    0.418550
     3  H    0.424301
 Sum of Mulliken charges =  -0.00000
 Mulliken charges with hydrogens summed into heavy atoms:
               1
     1  O   -0.000000
 Electronic spatial extent (au):  <R**2>=             18.6843
 Charge=             -0.0000 electrons
 Dipole moment (field-independent basis, Debye):
    X=             -0.0474    Y=             -2.4330    Z=              0.0000  Tot=              2.4335
 Quadrupole moment (field-independent basis, Debye-Ang):
   XX=             -4.8096   YY=             -5.5858   ZZ=             -7.1816
   XY=             -0.0840   XZ=              0.0000   YZ=              0.0000
 Traceless Quadrupole moment (field-independent basis, Debye-Ang):
   XX=              1.0494   YY=              0.2732   ZZ=             -1.3226
   XY=             -0.0840   XZ=              0.0000   YZ=              0.0000
 Octapole moment (field-independent basis, Debye-Ang**2):
  XXX=             -0.1001  YYY=             -1.7499  ZZZ=              0.0000  XYY=              0.0645
  XXY=             -1.2096  XXZ=              0.0000  XZZ=             -0.0357  YZZ=             -0.4394
  YYZ=              0.0000  XYZ=              0.0000
 Hexadecapole moment (field-independent basis, Debye-Ang**3):
 XXXX=             -5.7023 YYYY=             -6.0771 ZZZZ=             -5.1561 XXXY=              0.0476
 XXXZ=              0.0000 YYYX=              0.0003 YYYZ=              0.0000 ZZZX=              0.0000
 ZZZY=              0.0000 XXYY=             -1.5772 XXZZ=             -1.9515 YYZZ=             -1.9530
 XXYZ=              0.0000 YYXZ=              0.0000 ZZXY=              0.0321
 N-N= 9.470555045964D+00 E-N=-1.994309580288D+02  KE= 7.594905589057D+01
 Symmetry A'   KE= 7.138188463781D+01
 Symmetry A"   KE= 4.567171252766D+00
 No NMR shielding tensors so no spin-rotation constants.
 Leave Link  601 at Wed Feb  8 15:05:40 2023, MaxMem=   754974720 cpu:               0.6 elap:               0.2
 (Enter /opt/cluster/programs/g16-c.01/g16/l9999.exe)
 Unable to Open any file for archive entry.
 1\1\GINC-NODE64\SP\RHF\6-31G(d)\H2O1\BOITTIER\08-Feb-2023\0\\#P HF/6-3
 1g* scf(maxcycle=200)\\Gaussian input\\0,1\O,0,0.,0.11751,0.\H,0,0.757
 8497316,-0.4701504329,0.\H,0,-0.5626457724,-0.596430288,0.\\Version=ES
 64L-G16RevC.01\State=1-A'\HF=-76.0012859\RMSD=5.290e-09\Dipole=0.12351
 15,-0.9494007,0.\Quadrupole=0.7858127,0.1974983,-0.983311,0.0249616,0.
 ,0.\PG=CS [SG(H2O1)]\\@
 The archive entry for this job was punched.


 THE BEST WAY TO CONVINCE A FOOL THAT HE IS WRONG 
 IS TO LET HIM HAVE HIS OWN WAY.

                                         JOSH BILLINGS
 Job cpu time:       0 days  0 hours  0 minutes  4.2 seconds.
 Elapsed time:       0 days  0 hours  0 minutes  1.2 seconds.
 File lengths (MBytes):  RWF=      6 Int=      0 D2E=      0 Chk=      1 Scr=      1
 Normal termination of Gaussian 16 at Wed Feb  8 15:05:40 2023.
