 Entering Gaussian System, Link 0=/opt/cluster/programs/g16-c.01/g16/g16
 Input=/scratch/boittier/jobs/tmp.7261786/gaussian_112_water_ccsdt_atz.com
 Output=/scratch/boittier/jobs/tmp.7261786/gaussian_112_water_ccsdt_atz.out
 Initial command:
 /opt/cluster/programs/g16-c.01/g16/l1.exe "/scratch/boittier/jobs/tmp.7261786/Gau-137201.inp" -scrdir="/scratch/boittier/jobs/tmp.7261786/"
 Entering Link 1 = /opt/cluster/programs/g16-c.01/g16/l1.exe PID=    137202.
  
 Copyright (c) 1988-2019, Gaussian, Inc.  All Rights Reserved.
  
 This is part of the Gaussian(R) 16 program.  It is based on
 the Gaussian(R) 09 system (copyright 2009, Gaussian, Inc.),
 the Gaussian(R) 03 system (copyright 2003, Gaussian, Inc.),
 the Gaussian(R) 98 system (copyright 1998, Gaussian, Inc.),
 the Gaussian(R) 94 system (copyright 1995, Gaussian, Inc.),
 the Gaussian 92(TM) system (copyright 1992, Gaussian, Inc.),
 the Gaussian 90(TM) system (copyright 1990, Gaussian, Inc.),
 the Gaussian 88(TM) system (copyright 1988, Gaussian, Inc.),
 the Gaussian 86(TM) system (copyright 1986, Carnegie Mellon
 University), and the Gaussian 82(TM) system (copyright 1983,
 Carnegie Mellon University). Gaussian is a federally registered
 trademark of Gaussian, Inc.
  
 This software contains proprietary and confidential information,
 including trade secrets, belonging to Gaussian, Inc.
  
 This software is provided under written license and may be
 used, copied, transmitted, or stored only in accord with that
 written license.
  
 The following legend is applicable only to US Government
 contracts under FAR:
  
                    RESTRICTED RIGHTS LEGEND
  
 Use, reproduction and disclosure by the US Government is
 subject to restrictions as set forth in subparagraphs (a)
 and (c) of the Commercial Computer Software - Restricted
 Rights clause in FAR 52.227-19.
  
 Gaussian, Inc.
 340 Quinnipiac St., Bldg. 40, Wallingford CT 06492
  
  
 ---------------------------------------------------------------
 Warning -- This program may not be used in any manner that
 competes with the business of Gaussian, Inc. or will provide
 assistance to any competitor of Gaussian, Inc.  The licensee
 of this program is prohibited from giving any competitor of
 Gaussian, Inc. access to this program.  By using this program,
 the user acknowledges that Gaussian, Inc. is engaged in the
 business of creating and licensing software in the field of
 computational chemistry and represents and warrants to the
 licensee that it is not a competitor of Gaussian, Inc. and that
 it will not use this program in any manner prohibited above.
 ---------------------------------------------------------------
  

 Cite this work as:
 Gaussian 16, Revision C.01,
 M. J. Frisch, G. W. Trucks, H. B. Schlegel, G. E. Scuseria, 
 M. A. Robb, J. R. Cheeseman, G. Scalmani, V. Barone, 
 G. A. Petersson, H. Nakatsuji, X. Li, M. Caricato, A. V. Marenich, 
 J. Bloino, B. G. Janesko, R. Gomperts, B. Mennucci, H. P. Hratchian, 
 J. V. Ortiz, A. F. Izmaylov, J. L. Sonnenberg, D. Williams-Young, 
 F. Ding, F. Lipparini, F. Egidi, J. Goings, B. Peng, A. Petrone, 
 T. Henderson, D. Ranasinghe, V. G. Zakrzewski, J. Gao, N. Rega, 
 G. Zheng, W. Liang, M. Hada, M. Ehara, K. Toyota, R. Fukuda, 
 J. Hasegawa, M. Ishida, T. Nakajima, Y. Honda, O. Kitao, H. Nakai, 
 T. Vreven, K. Throssell, J. A. Montgomery, Jr., J. E. Peralta, 
 F. Ogliaro, M. J. Bearpark, J. J. Heyd, E. N. Brothers, K. N. Kudin, 
 V. N. Staroverov, T. A. Keith, R. Kobayashi, J. Normand, 
 K. Raghavachari, A. P. Rendell, J. C. Burant, S. S. Iyengar, 
 J. Tomasi, M. Cossi, J. M. Millam, M. Klene, C. Adamo, R. Cammi, 
 J. W. Ochterski, R. L. Martin, K. Morokuma, O. Farkas, 
 J. B. Foresman, and D. J. Fox, Gaussian, Inc., Wallingford CT, 2019.
 
 ******************************************
 Gaussian 16:  ES64L-G16RevC.01  3-Jul-2019
                 8-Feb-2023 
 ******************************************
 %nproc=4
 Will use up to    4 processors via shared memory.
 %mem=5760MB
 %chk=gaussian_112_water_ccsdt_atz.chk
 ----------------------------------------
 #P CCSD(T)/aug-cc-pVTZ scf(maxcycle=200)
 ----------------------------------------
 1/38=1,172=1/1;
 2/12=2,17=6,18=5,40=1/2;
 3/5=16,6=1,7=10,11=9,25=1,30=1/1,2,3;
 4//1;
 5/5=2,7=200,38=5/2;
 8/6=4,9=120000,10=1/1,4;
 9/5=7,14=2/13;
 6/7=2,8=2,9=2,10=2/1;
 99/5=1,9=1/99;
 Leave Link    1 at Wed Feb  8 13:54:07 2023, MaxMem=   754974720 cpu:               0.1 elap:               0.0
 (Enter /opt/cluster/programs/g16-c.01/g16/l101.exe)
 --------------
 Gaussian input
 --------------
 Symbolic Z-matrix:
 Charge =  0 Multiplicity = 1
 O                     0.        0.11751   0. 
 H                     0.75785  -0.47015   0. 
 H                    -0.83887  -0.44319   0. 
 
 ITRead=  0  0  0
 MicOpt= -1 -1 -1
 NAtoms=      3 NQM=        3 NQMF=       0 NMMI=      0 NMMIF=      0
                NMic=       0 NMicF=      0.
                    Isotopes and Nuclear Properties:
 (Nuclear quadrupole moments (NQMom) in fm**2, nuclear magnetic moments (NMagM)
  in nuclear magnetons)

  Atom         1           2           3
 IAtWgt=          16           1           1
 AtmWgt=  15.9949146   1.0078250   1.0078250
 NucSpn=           0           1           1
 AtZEff=  -0.0000000  -0.0000000  -0.0000000
 NQMom=    0.0000000   0.0000000   0.0000000
 NMagM=    0.0000000   2.7928460   2.7928460
 AtZNuc=   8.0000000   1.0000000   1.0000000
 Leave Link  101 at Wed Feb  8 13:54:07 2023, MaxMem=   754974720 cpu:               0.4 elap:               0.2
 (Enter /opt/cluster/programs/g16-c.01/g16/l202.exe)
                          Input orientation:                          
 ---------------------------------------------------------------------
 Center     Atomic      Atomic             Coordinates (Angstroms)
 Number     Number       Type             X           Y           Z
 ---------------------------------------------------------------------
      1          8           0        0.000000    0.117510    0.000000
      2          1           0        0.757850   -0.470150    0.000000
      3          1           0       -0.838866   -0.443190    0.000000
 ---------------------------------------------------------------------
                    Distance matrix (angstroms):
                    1          2          3
     1  O    0.000000
     2  H    0.959000   0.000000
     3  H    1.009000   1.596943   0.000000
 Stoichiometry    H2O
 Framework group  CS[SG(H2O)]
 Deg. of freedom     3
 Full point group                 CS      NOp   2
 Largest Abelian subgroup         CS      NOp   2
 Largest concise Abelian subgroup C1      NOp   1
                         Standard orientation:                         
 ---------------------------------------------------------------------
 Center     Atomic      Atomic             Coordinates (Angstroms)
 Number     Number       Type             X           Y           Z
 ---------------------------------------------------------------------
      1          8           0        0.000000    0.115122    0.000000
      2          1           0        0.797327   -0.417749    0.000000
      3          1           0       -0.797327   -0.503223    0.000000
 ---------------------------------------------------------------------
 Rotational constants (GHZ):         856.6446739         392.3040862         269.0784576
 Leave Link  202 at Wed Feb  8 13:54:07 2023, MaxMem=   754974720 cpu:               0.0 elap:               0.0
 (Enter /opt/cluster/programs/g16-c.01/g16/l301.exe)
 Standard basis: Aug-CC-pVTZ (5D, 7F)
 Ernie: Thresh=  0.10000D-02 Tol=  0.10000D-05 Strict=F.
 Ernie:  3 primitive shells out of 52 were deleted.
 There are    73 symmetry adapted cartesian basis functions of A'  symmetry.
 There are    32 symmetry adapted cartesian basis functions of A"  symmetry.
 There are    62 symmetry adapted basis functions of A'  symmetry.
 There are    30 symmetry adapted basis functions of A"  symmetry.
    92 basis functions,   126 primitive gaussians,   105 cartesian basis functions
     5 alpha electrons        5 beta electrons
       nuclear repulsion energy         8.9414340293 Hartrees.
 IExCor=    0 DFT=F Ex=HF Corr=None ExCW=0 ScaHFX=  1.000000
 ScaDFX=  1.000000  1.000000  1.000000  1.000000 ScalE2=  1.000000  1.000000
 IRadAn=      5 IRanWt=     -1 IRanGd=            0 ICorTp=0 IEmpDi=  4
 NAtoms=    3 NActive=    3 NUniq=    3 SFac= 1.00D+00 NAtFMM=   60 NAOKFM=F Big=F
 Integral buffers will be    131072 words long.
 Raffenetti 1 integral format.
 Two-electron integral symmetry is turned on.
 Leave Link  301 at Wed Feb  8 13:54:07 2023, MaxMem=   754974720 cpu:               0.1 elap:               0.1
 (Enter /opt/cluster/programs/g16-c.01/g16/l302.exe)
 NPDir=0 NMtPBC=     1 NCelOv=     1 NCel=       1 NClECP=     1 NCelD=      1
         NCelK=      1 NCelE2=     1 NClLst=     1 CellRange=     0.0.
 One-electron integrals computed using PRISM.
 One-electron integral symmetry used in STVInt
 NBasis=    92 RedAO= T EigKep=  3.85D-04  NBF=    62    30
 NBsUse=    92 1.00D-06 EigRej= -1.00D+00 NBFU=    62    30
 Leave Link  302 at Wed Feb  8 13:54:08 2023, MaxMem=   754974720 cpu:               3.1 elap:               1.2
 (Enter /opt/cluster/programs/g16-c.01/g16/l303.exe)
 DipDrv:  MaxL=1.
 Leave Link  303 at Wed Feb  8 13:54:08 2023, MaxMem=   754974720 cpu:               0.2 elap:               0.1
 (Enter /opt/cluster/programs/g16-c.01/g16/l401.exe)
 ExpMin= 2.53D-02 ExpMax= 1.53D+04 ExpMxC= 5.22D+02 IAcc=3 IRadAn=         5 AccDes= 0.00D+00
 Harris functional with IExCor=  205 and IRadAn=       5 diagonalized for initial guess.
 HarFok:  IExCor=  205 AccDes= 0.00D+00 IRadAn=         5 IDoV= 1 UseB2=F ITyADJ=14
 ICtDFT=  3500011 ScaDFX=  1.000000  1.000000  1.000000  1.000000
 FoFCou: FMM=F IPFlag=           0 FMFlag=      100000 FMFlg1=           0
         NFxFlg=           0 DoJE=T BraDBF=F KetDBF=T FulRan=T
         wScrn=  0.000000 ICntrl=       500 IOpCl=  0 I1Cent=   200000004 NGrid=           0
         NMat0=    1 NMatS0=      1 NMatT0=    0 NMatD0=    1 NMtDS0=    0 NMtDT0=    0
 Petite list used in FoFCou.
 Harris En= -76.1501978057930    
 JPrj=0 DoOrth=F DoCkMO=F.
 Initial guess orbital symmetries:
       Occupied  (A') (A') (A') (A') (A")
       Virtual   (A') (A') (A') (A") (A') (A') (A') (A') (A") (A')
                 (A") (A') (A') (A') (A') (A') (A') (A") (A") (A')
                 (A') (A") (A") (A') (A") (A') (A') (A') (A') (A")
                 (A') (A') (A") (A') (A") (A") (A') (A') (A') (A')
                 (A') (A") (A") (A') (A') (A") (A') (A') (A") (A')
                 (A') (A") (A') (A') (A') (A") (A") (A') (A') (A")
                 (A") (A') (A") (A') (A') (A') (A") (A') (A') (A')
                 (A") (A') (A') (A') (A") (A') (A") (A") (A') (A")
                 (A") (A') (A') (A') (A') (A') (A')
 The electronic state of the initial guess is 1-A'.
 Leave Link  401 at Wed Feb  8 13:54:09 2023, MaxMem=   754974720 cpu:               2.1 elap:               0.7
 (Enter /opt/cluster/programs/g16-c.01/g16/l502.exe)
 Keep R1 ints in memory in symmetry-blocked form, NReq=13818732.
 FoFCou: FMM=F IPFlag=           0 FMFlag=           0 FMFlg1=           0
         NFxFlg=           0 DoJE=F BraDBF=F KetDBF=F FulRan=T
         wScrn=  0.000000 ICntrl=       600 IOpCl=  0 I1Cent=           0 NGrid=           0
         NMat0=    1 NMatS0=   4278 NMatT0=    0 NMatD0=    1 NMtDS0=    0 NMtDT0=    0
 Petite list used in FoFCou.
 Closed shell SCF:
 Using DIIS extrapolation, IDIIS=  1040.
 NGot=   754974720 LenX=   750285684 LenY=   750274218
 Requested convergence on RMS density matrix=1.00D-08 within 200 cycles.
 Requested convergence on MAX density matrix=1.00D-06.
 Requested convergence on             energy=1.00D-06.
 No special actions if energy rises.

 Cycle   1  Pass 1  IDiag  1:
 E= -75.9682210797612    
 DIIS: error= 6.02D-02 at cycle   1 NSaved=   1.
 NSaved= 1 IEnMin= 1 EnMin= -75.9682210797612     IErMin= 1 ErrMin= 6.02D-02
 ErrMax= 6.02D-02  0.00D+00 EMaxC= 1.00D-01 BMatC= 2.00D-01 BMatP= 2.00D-01
 IDIUse=3 WtCom= 3.98D-01 WtEn= 6.02D-01
 Coeff-Com:  0.100D+01
 Coeff-En:   0.100D+01
 Coeff:      0.100D+01
 Gap=     0.452 Goal=   None    Shift=    0.000
 GapD=    0.452 DampG=2.000 DampE=0.500 DampFc=1.0000 IDamp=-1.
 RMSDP=2.14D-03 MaxDP=4.79D-02              OVMax= 1.25D-01

 Cycle   2  Pass 1  IDiag  1:
 E= -76.0182454409144     Delta-E=       -0.050024361153 Rises=F Damp=F
 DIIS: error= 4.12D-02 at cycle   2 NSaved=   2.
 NSaved= 2 IEnMin= 2 EnMin= -76.0182454409144     IErMin= 2 ErrMin= 4.12D-02
 ErrMax= 4.12D-02  0.00D+00 EMaxC= 1.00D-01 BMatC= 6.04D-02 BMatP= 2.00D-01
 IDIUse=3 WtCom= 5.88D-01 WtEn= 4.12D-01
 Coeff-Com:  0.327D+00 0.673D+00
 Coeff-En:   0.218D+00 0.782D+00
 Coeff:      0.282D+00 0.718D+00
 Gap=     0.563 Goal=   None    Shift=    0.000
 RMSDP=1.31D-03 MaxDP=3.40D-02 DE=-5.00D-02 OVMax= 6.62D-02

 Cycle   3  Pass 1  IDiag  1:
 E= -76.0542517823953     Delta-E=       -0.036006341481 Rises=F Damp=F
 DIIS: error= 8.54D-03 at cycle   3 NSaved=   3.
 NSaved= 3 IEnMin= 3 EnMin= -76.0542517823953     IErMin= 3 ErrMin= 8.54D-03
 ErrMax= 8.54D-03  0.00D+00 EMaxC= 1.00D-01 BMatC= 2.94D-03 BMatP= 6.04D-02
 IDIUse=3 WtCom= 9.15D-01 WtEn= 8.54D-02
 Coeff-Com: -0.313D-01 0.150D+00 0.882D+00
 Coeff-En:   0.000D+00 0.000D+00 0.100D+01
 Coeff:     -0.286D-01 0.137D+00 0.892D+00
 Gap=     0.533 Goal=   None    Shift=    0.000
 RMSDP=2.25D-04 MaxDP=4.25D-03 DE=-3.60D-02 OVMax= 1.32D-02

 Cycle   4  Pass 1  IDiag  1:
 E= -76.0561151398578     Delta-E=       -0.001863357462 Rises=F Damp=F
 DIIS: error= 7.66D-04 at cycle   4 NSaved=   4.
 NSaved= 4 IEnMin= 4 EnMin= -76.0561151398578     IErMin= 4 ErrMin= 7.66D-04
 ErrMax= 7.66D-04  0.00D+00 EMaxC= 1.00D-01 BMatC= 1.67D-05 BMatP= 2.94D-03
 IDIUse=3 WtCom= 9.92D-01 WtEn= 7.66D-03
 Coeff-Com:  0.685D-02-0.562D-01-0.240D+00 0.129D+01
 Coeff-En:   0.000D+00 0.000D+00 0.000D+00 0.100D+01
 Coeff:      0.680D-02-0.558D-01-0.238D+00 0.129D+01
 Gap=     0.536 Goal=   None    Shift=    0.000
 RMSDP=4.10D-05 MaxDP=7.69D-04 DE=-1.86D-03 OVMax= 2.46D-03

 Cycle   5  Pass 1  IDiag  1:
 E= -76.0561436931636     Delta-E=       -0.000028553306 Rises=F Damp=F
 DIIS: error= 2.13D-04 at cycle   5 NSaved=   5.
 NSaved= 5 IEnMin= 5 EnMin= -76.0561436931636     IErMin= 5 ErrMin= 2.13D-04
 ErrMax= 2.13D-04  0.00D+00 EMaxC= 1.00D-01 BMatC= 8.38D-07 BMatP= 1.67D-05
 IDIUse=3 WtCom= 9.98D-01 WtEn= 2.13D-03
 Coeff-Com:  0.568D-03 0.615D-03-0.217D-02-0.260D+00 0.126D+01
 Coeff-En:   0.000D+00 0.000D+00 0.000D+00 0.000D+00 0.100D+01
 Coeff:      0.567D-03 0.614D-03-0.217D-02-0.259D+00 0.126D+01
 Gap=     0.536 Goal=   None    Shift=    0.000
 RMSDP=1.27D-05 MaxDP=2.60D-04 DE=-2.86D-05 OVMax= 8.12D-04

 Cycle   6  Pass 1  IDiag  1:
 E= -76.0561458493927     Delta-E=       -0.000002156229 Rises=F Damp=F
 DIIS: error= 3.43D-05 at cycle   6 NSaved=   6.
 NSaved= 6 IEnMin= 6 EnMin= -76.0561458493927     IErMin= 6 ErrMin= 3.43D-05
 ErrMax= 3.43D-05  0.00D+00 EMaxC= 1.00D-01 BMatC= 2.62D-08 BMatP= 8.38D-07
 IDIUse=1 WtCom= 1.00D+00 WtEn= 0.00D+00
 Coeff-Com: -0.334D-03 0.172D-02 0.766D-02 0.111D-01-0.313D+00 0.129D+01
 Coeff:     -0.334D-03 0.172D-02 0.766D-02 0.111D-01-0.313D+00 0.129D+01
 Gap=     0.536 Goal=   None    Shift=    0.000
 RMSDP=2.72D-06 MaxDP=6.34D-05 DE=-2.16D-06 OVMax= 1.83D-04

 Cycle   7  Pass 1  IDiag  1:
 E= -76.0561459324755     Delta-E=       -0.000000083083 Rises=F Damp=F
 DIIS: error= 5.74D-06 at cycle   7 NSaved=   7.
 NSaved= 7 IEnMin= 7 EnMin= -76.0561459324755     IErMin= 7 ErrMin= 5.74D-06
 ErrMax= 5.74D-06  0.00D+00 EMaxC= 1.00D-01 BMatC= 1.33D-09 BMatP= 2.62D-08
 IDIUse=1 WtCom= 1.00D+00 WtEn= 0.00D+00
 Coeff-Com:  0.322D-04-0.381D-03-0.163D-02 0.158D-01-0.194D-01-0.192D+00
 Coeff-Com:  0.120D+01
 Coeff:      0.322D-04-0.381D-03-0.163D-02 0.158D-01-0.194D-01-0.192D+00
 Coeff:      0.120D+01
 Gap=     0.536 Goal=   None    Shift=    0.000
 RMSDP=4.00D-07 MaxDP=9.79D-06 DE=-8.31D-08 OVMax= 3.48D-05

 Cycle   8  Pass 1  IDiag  1:
 E= -76.0561459354245     Delta-E=       -0.000000002949 Rises=F Damp=F
 DIIS: error= 1.49D-06 at cycle   8 NSaved=   8.
 NSaved= 8 IEnMin= 8 EnMin= -76.0561459354245     IErMin= 8 ErrMin= 1.49D-06
 ErrMax= 1.49D-06  0.00D+00 EMaxC= 1.00D-01 BMatC= 7.30D-11 BMatP= 1.33D-09
 IDIUse=1 WtCom= 1.00D+00 WtEn= 0.00D+00
 Coeff-Com:  0.901D-05 0.116D-04 0.981D-04-0.526D-02 0.215D-01-0.883D-02
 Coeff-Com: -0.376D+00 0.137D+01
 Coeff:      0.901D-05 0.116D-04 0.981D-04-0.526D-02 0.215D-01-0.883D-02
 Coeff:     -0.376D+00 0.137D+01
 Gap=     0.536 Goal=   None    Shift=    0.000
 RMSDP=1.30D-07 MaxDP=2.83D-06 DE=-2.95D-09 OVMax= 8.72D-06

 Cycle   9  Pass 1  IDiag  1:
 E= -76.0561459356119     Delta-E=       -0.000000000187 Rises=F Damp=F
 DIIS: error= 2.18D-07 at cycle   9 NSaved=   9.
 NSaved= 9 IEnMin= 9 EnMin= -76.0561459356119     IErMin= 9 ErrMin= 2.18D-07
 ErrMax= 2.18D-07  0.00D+00 EMaxC= 1.00D-01 BMatC= 1.17D-12 BMatP= 7.30D-11
 IDIUse=1 WtCom= 1.00D+00 WtEn= 0.00D+00
 Coeff-Com: -0.214D-05 0.491D-05 0.704D-05 0.641D-03-0.312D-02 0.367D-02
 Coeff-Com:  0.563D-01-0.296D+00 0.124D+01
 Coeff:     -0.214D-05 0.491D-05 0.704D-05 0.641D-03-0.312D-02 0.367D-02
 Coeff:      0.563D-01-0.296D+00 0.124D+01
 Gap=     0.536 Goal=   None    Shift=    0.000
 RMSDP=2.01D-08 MaxDP=3.95D-07 DE=-1.87D-10 OVMax= 9.26D-07

 Cycle  10  Pass 1  IDiag  1:
 E= -76.0561459356147     Delta-E=       -0.000000000003 Rises=F Damp=F
 DIIS: error= 4.41D-08 at cycle  10 NSaved=  10.
 NSaved=10 IEnMin=10 EnMin= -76.0561459356147     IErMin=10 ErrMin= 4.41D-08
 ErrMax= 4.41D-08  0.00D+00 EMaxC= 1.00D-01 BMatC= 5.67D-14 BMatP= 1.17D-12
 IDIUse=1 WtCom= 1.00D+00 WtEn= 0.00D+00
 Coeff-Com:  0.561D-07-0.132D-05-0.515D-05 0.728D-04-0.159D-03-0.625D-03
 Coeff-Com:  0.611D-02-0.621D-02-0.205D+00 0.121D+01
 Coeff:      0.561D-07-0.132D-05-0.515D-05 0.728D-04-0.159D-03-0.625D-03
 Coeff:      0.611D-02-0.621D-02-0.205D+00 0.121D+01
 Gap=     0.536 Goal=   None    Shift=    0.000
 RMSDP=4.68D-09 MaxDP=1.02D-07 DE=-2.86D-12 OVMax= 2.25D-07

 SCF Done:  E(RHF) =  -76.0561459356     A.U. after   10 cycles
            NFock= 10  Conv=0.47D-08     -V/T= 2.0027
 KE= 7.585443727354D+01 PE=-1.984541300484D+02 EE= 3.760211280996D+01
 Leave Link  502 at Wed Feb  8 13:54:10 2023, MaxMem=   754974720 cpu:               2.6 elap:               0.9
 (Enter /opt/cluster/programs/g16-c.01/g16/l801.exe)
 Windowed orbitals will be sorted by symmetry type.
 ExpMin= 2.53D-02 ExpMax= 1.53D+04 ExpMxC= 5.22D+02 IAcc=3 IRadAn=         5 AccDes= 0.00D+00
 HarFok:  IExCor=  205 AccDes= 0.00D+00 IRadAn=         5 IDoV=-2 UseB2=F ITyADJ=14
 ICtDFT= 12500011 ScaDFX=  1.000000  1.000000  1.000000  1.000000
 Largest valence mixing into a core orbital is  1.12D-04
 Largest core mixing into a valence orbital is  1.78D-05
 Range of M.O.s used for correlation:     2    92
 NBasis=    92 NAE=     5 NBE=     5 NFC=     1 NFV=     0
 NROrb=     91 NOA=     4 NOB=     4 NVA=    87 NVB=    87

 **** Warning!!: The largest alpha MO coefficient is  0.15104046D+02

 Leave Link  801 at Wed Feb  8 13:54:10 2023, MaxMem=   754974720 cpu:               0.4 elap:               0.1
 (Enter /opt/cluster/programs/g16-c.01/g16/l804.exe)
 Closed-shell transformation, MDV=   754974720 ITran=4 ISComp=2.
 Unit  1 TFree=        277501 TCopy=        343607.
 Semi-Direct transformation.
 ModeAB=           2 MOrb=             4 LenV=     754586778
 LASXX=       736380 LTotXX=      736380 LenRXX=      736380
 LTotAB=      763744 MaxLAS=     2025660 LenRXY=     2025660
 NonZer=     2107560 LenScr=     3929600 LnRSAI=           0
 LnScr1=           0 LExtra=           0 Total=      6691640
 MaxDsk=          -1 SrtSym=           F ITran=            4
 DoSDTr:  NPSUse=  4
 JobTyp=0 Pass  1:  I=   1 to   4.
 (rs|ai) integrals will be sorted in core.
 Complete sort for first half transformation.
 First half transformation complete.
 Complete sort for second half transformation.
 Second half transformation complete.
 Spin components of T(2) and E(2):
     alpha-alpha T2 =       0.8325556659D-02 E2=     -0.3277611190D-01
     alpha-beta  T2 =       0.4854381429D-01 E2=     -0.2046696832D+00
     beta-beta   T2 =       0.8325556659D-02 E2=     -0.3277611190D-01
 ANorm=    0.1032082810D+01
 E2 =    -0.2702219070D+00 EUMP2 =    -0.76326367842584D+02
 Leave Link  804 at Wed Feb  8 13:54:11 2023, MaxMem=   754974720 cpu:               2.4 elap:               0.7
 (Enter /opt/cluster/programs/g16-c.01/g16/l913.exe)
 CIDS:  MDV=   754974720.
 Frozen-core window:  NFC=   1 NFV=   0.
 IFCWin=0 IBDFC=1 NFBD=     0     0 NFCmp=     0     0 NFFFC=     0     0
 Using DD3R+UMP44R for 1st iteration.
 Using DD4RQ for 2nd and later iterations.
 Keep R2 and R3 ints in memory in symmetry-blocked form, NReq=13979827.
 FoFCou: FMM=F IPFlag=           0 FMFlag=           0 FMFlg1=           0
         NFxFlg=           0 DoJE=F BraDBF=F KetDBF=F FulRan=T
         wScrn=  0.000000 ICntrl=       600 IOpCl=  0 I1Cent=           0 NGrid=           0
         NMat0=    1 NMatS0=   4278 NMatT0=    0 NMatD0=    1 NMtDS0=    0 NMtDT0=    0
 Petite list used in FoFCou.
 CIDS: In Core Option IDoMem=           1.
 CCSD(T)
 =======
 Iterations=  50 Convergence= 0.100D-06
 Produce multiple copies of IABC intergrals
 Iteration Nr.   1
 **********************
 DD1Dir will call FoFMem   1 times, MxPair=        20
 NAB=    10 NAA=     0 NBB=     0.
 MP4(R+Q)=  0.41505906D-02
 Maximum subspace dimension=  5
 A-vector RMS=  2.9582569D-03 Max=  1.2835255D-02 conv= 1.00D-05.
 RLE energy=       -0.2682724520
 E3=       -0.22299684D-02        EUMP3=      -0.76328597811D+02
 E4(DQ)=   -0.78013412D-03        UMP4(DQ)=   -0.76329377945D+02
 E4(SDQ)=  -0.27815867D-02        UMP4(SDQ)=  -0.76331379398D+02
 VARIATIONAL ENERGIES WITH THE FIRST-ORDER WAVEFUNCTION:
 DE(Corr)= -0.26825829     E(Corr)=     -76.324404228    
 NORM(A)=   0.10318208D+01
 Iteration Nr.   2
 **********************
 DD1Dir will call FoFMem   1 times, MxPair=        20
 NAB=    10 NAA=     0 NBB=     0.
 A-vector RMS=  3.2493182D-04 Max=  2.3120135D-03 conv= 1.00D-05.
 RLE energy=       -0.2743436960
 DE(Corr)= -0.27393866     E(CORR)=     -76.330084594     Delta=-5.68D-03
 NORM(A)=   0.10340946D+01
 Iteration Nr.   3
 **********************
 DD1Dir will call FoFMem   1 times, MxPair=        20
 NAB=    10 NAA=     0 NBB=     0.
 A-vector RMS=  4.2111385D-04 Max=  2.3851661D-03 conv= 1.00D-05.
 RLE energy=       -0.2746825536
 DE(Corr)= -0.27427613     E(CORR)=     -76.330422067     Delta=-3.37D-04
 NORM(A)=   0.10345580D+01
 Iteration Nr.   4
 **********************
 DD1Dir will call FoFMem   1 times, MxPair=        20
 NAB=    10 NAA=     0 NBB=     0.
 A-vector RMS=  6.7097844D-05 Max=  4.0329086D-04 conv= 1.00D-05.
 RLE energy=       -0.2747195487
 DE(Corr)= -0.27468862     E(CORR)=     -76.330834557     Delta=-4.12D-04
 NORM(A)=   0.10346814D+01
 Iteration Nr.   5
 **********************
 DD1Dir will call FoFMem   1 times, MxPair=        20
 NAB=    10 NAA=     0 NBB=     0.
 A-vector RMS=  3.2918793D-05 Max=  2.0369446D-04 conv= 1.00D-05.
 RLE energy=       -0.2747331649
 DE(Corr)= -0.27472705     E(CORR)=     -76.330872986     Delta=-3.84D-05
 NORM(A)=   0.10347067D+01
 Iteration Nr.   6
 **********************
 DD1Dir will call FoFMem   1 times, MxPair=        20
 NAB=    10 NAA=     0 NBB=     0.
 A-vector RMS=  7.8128149D-06 Max=  4.1877527D-05 conv= 1.00D-05.
 RLE energy=       -0.2747290935
 DE(Corr)= -0.27473019     E(CORR)=     -76.330876126     Delta=-3.14D-06
 NORM(A)=   0.10347089D+01
 Iteration Nr.   7
 **********************
 DD1Dir will call FoFMem   1 times, MxPair=        20
 NAB=    10 NAA=     0 NBB=     0.
 A-vector RMS=  2.9310542D-06 Max=  1.5601777D-05 conv= 1.00D-05.
 RLE energy=       -0.2747291990
 DE(Corr)= -0.27473021     E(CORR)=     -76.330876149     Delta=-2.29D-08
 NORM(A)=   0.10347096D+01
 Iteration Nr.   8
 **********************
 DD1Dir will call FoFMem   1 times, MxPair=        20
 NAB=    10 NAA=     0 NBB=     0.
 A-vector RMS=  1.1031826D-06 Max=  4.9514383D-06 conv= 1.00D-05.
 RLE energy=       -0.2747297895
 DE(Corr)= -0.27472992     E(CORR)=     -76.330875856     Delta= 2.93D-07
 NORM(A)=   0.10347100D+01
 Iteration Nr.   9
 **********************
 DD1Dir will call FoFMem   1 times, MxPair=        20
 NAB=    10 NAA=     0 NBB=     0.
 A-vector RMS=  3.2794286D-07 Max=  1.8955057D-06 conv= 1.00D-05.
 RLE energy=       -0.2747299169
 DE(Corr)= -0.27472994     E(CORR)=     -76.330875873     Delta=-1.64D-08
 NORM(A)=   0.10347102D+01
 CI/CC converged in    9 iterations to DelEn=-1.64D-08 Conv= 1.00D-07 ErrA1= 3.28D-07 Conv= 1.00D-05
 Wavefunction amplitudes converged. E(Corr)=     -76.330875873    
 Largest amplitude= 2.16D-02
 IPart=  2 IA=    6   11.23% done.
 IPart=  3 IA=   11   21.79% done.
 IPart=  3 IA=   16   31.68% done.
 IPart=  2 IA=   21   40.90% done.
 IPart=  3 IA=   27   51.08% done.
 IPart=  4 IA=   33   60.30% done.
 IPart=  4 IA=   41   71.10% done.
 IPart=  4 IA=   49   80.19% done.
 IPart=  2 IA=   61   90.62% done.
 Time for triples=        6.45 seconds.
 T4(CCSD)= -0.92174653D-02
 T5(CCSD)=  0.34126641D-03
 CCSD(T)= -0.76339752072D+02
 Discarding MO integrals.
 Leave Link  913 at Wed Feb  8 13:54:14 2023, MaxMem=   754974720 cpu:              12.9 elap:               3.3
 (Enter /opt/cluster/programs/g16-c.01/g16/l601.exe)
 Copying SCF densities to generalized density rwf, IOpCl= 0 IROHF=0.

 **********************************************************************

            Population analysis using the SCF Density.

 **********************************************************************

 Orbital symmetries:
       Occupied  (A') (A') (A') (A') (A")
       Virtual   (A') (A') (A') (A") (A') (A') (A') (A') (A") (A")
                 (A') (A') (A') (A') (A') (A') (A') (A") (A") (A')
                 (A") (A') (A') (A") (A') (A") (A') (A') (A') (A")
                 (A') (A") (A') (A') (A") (A') (A") (A') (A') (A')
                 (A') (A") (A") (A') (A') (A") (A') (A') (A") (A')
                 (A') (A') (A") (A') (A') (A") (A") (A') (A') (A")
                 (A") (A") (A') (A') (A') (A') (A') (A") (A') (A')
                 (A") (A') (A') (A') (A") (A') (A") (A") (A") (A')
                 (A') (A") (A') (A') (A') (A') (A')
 The electronic state is 1-A'.
 Alpha  occ. eigenvalues --  -20.56984  -1.33814  -0.71066  -0.57206  -0.50703
 Alpha virt. eigenvalues --    0.02929   0.04733   0.13630   0.15918   0.17288
 Alpha virt. eigenvalues --    0.18215   0.22638   0.24335   0.26358   0.30356
 Alpha virt. eigenvalues --    0.31219   0.36448   0.43067   0.46308   0.60066
 Alpha virt. eigenvalues --    0.65183   0.71058   0.71998   0.73214   0.81871
 Alpha virt. eigenvalues --    0.84099   0.89470   0.90692   0.91701   0.92688
 Alpha virt. eigenvalues --    0.92723   0.96869   1.01075   1.04060   1.08056
 Alpha virt. eigenvalues --    1.10800   1.16566   1.16632   1.27082   1.50455
 Alpha virt. eigenvalues --    1.57041   1.58173   1.76025   1.81004   1.95880
 Alpha virt. eigenvalues --    2.09860   2.25567   2.31242   2.32291   2.40373
 Alpha virt. eigenvalues --    2.40714   2.43428   2.49013   2.70899   2.70900
 Alpha virt. eigenvalues --    2.73637   2.85560   2.86649   3.58815   3.73760
 Alpha virt. eigenvalues --    3.98567   4.06202   4.16539   4.21176   4.31474
 Alpha virt. eigenvalues --    4.36975   4.37837   4.43292   4.47198   4.65859
 Alpha virt. eigenvalues --    4.74341   5.03920   5.08850   5.25307   5.25840
 Alpha virt. eigenvalues --    5.44421   5.67475   6.09427   6.54608   6.70001
 Alpha virt. eigenvalues --    6.81372   7.09898   7.21026   7.27798   7.28188
 Alpha virt. eigenvalues --    7.32995   7.36207   7.48777   7.81378   7.91568
 Alpha virt. eigenvalues --    8.63472  15.11184
          Condensed to atoms (all electrons):
               1          2          3
     1  O    7.946514   0.264888   0.265170
     2  H    0.264888   0.490751   0.024772
     3  H    0.265170   0.024772   0.453075
 Mulliken charges:
               1
     1  O   -0.476571
     2  H    0.219589
     3  H    0.256983
 Sum of Mulliken charges =  -0.00000
 Mulliken charges with hydrogens summed into heavy atoms:
               1
     1  O   -0.000000
 Electronic spatial extent (au):  <R**2>=             19.8350
 Charge=             -0.0000 electrons
 Dipole moment (field-independent basis, Debye):
    X=              0.0193    Y=             -1.9376    Z=              0.0000  Tot=              1.9377
 Quadrupole moment (field-independent basis, Debye-Ang):
   XX=             -4.0070   YY=             -6.3747   ZZ=             -7.6261
   XY=              0.1547   XZ=              0.0000   YZ=              0.0000
 Traceless Quadrupole moment (field-independent basis, Debye-Ang):
   XX=              1.9956   YY=             -0.3721   ZZ=             -1.6235
   XY=              0.1547   XZ=              0.0000   YZ=              0.0000
 Octapole moment (field-independent basis, Debye-Ang**2):
  XXX=              0.0672  YYY=             -1.0464  ZZZ=              0.0000  XYY=             -0.1105
  XXY=             -1.4950  XXZ=              0.0000  XZZ=              0.0260  YZZ=             -0.2288
  YYZ=              0.0000  XYZ=              0.0000
 Hexadecapole moment (field-independent basis, Debye-Ang**3):
 XXXX=             -5.9810 YYYY=             -7.4428 ZZZZ=             -6.8390 XXXY=              0.0105
 XXXZ=              0.0000 YYYX=              0.0042 YYYZ=              0.0000 ZZZX=              0.0000
 ZZZY=              0.0000 XXYY=             -1.9118 XXZZ=             -2.5408 YYZZ=             -2.4277
 XXYZ=              0.0000 YYXZ=              0.0000 ZZXY=             -0.0383
 N-N= 8.941434029299D+00 E-N=-1.984541298450D+02  KE= 7.585443727354D+01
 Symmetry A'   KE= 7.138806428887D+01
 Symmetry A"   KE= 4.466372984666D+00
 Leave Link  601 at Wed Feb  8 13:54:15 2023, MaxMem=   754974720 cpu:               0.7 elap:               0.4
 (Enter /opt/cluster/programs/g16-c.01/g16/l9999.exe)
 Unable to Open any file for archive entry.
 1\1\GINC-NODE66\SP\RCCSD(T)-FC\Aug-CC-pVTZ\H2O1\BOITTIER\08-Feb-2023\0
 \\#P CCSD(T)/aug-cc-pVTZ scf(maxcycle=200)\\Gaussian input\\0,1\O,0,0.
 ,0.11751,0.\H,0,0.7578497316,-0.4701504329,0.\H,0,-0.8388659611,-0.443
 190365,0.\\Version=ES64L-G16RevC.01\State=1-A'\HF=-76.0561459\MP2=-76.
 3263678\MP3=-76.3285978\MP4D=-76.3335285\MP4DQ=-76.3293779\MP4SDQ=-76.
 3313794\CCSD=-76.3308759\CCSD(T)=-76.3397521\RMSD=4.685e-09\PG=CS [SG(
 H2O1)]\\@
 The archive entry for this job was punched.


 THERE ARE PEOPLE SO ADDICTED TO EXAGERATING THEY
 CAN'T TELL THE TRUTH WITHOUT LYING. -- FORTUNE COOKIE
 Job cpu time:       0 days  0 hours  0 minutes 25.3 seconds.
 Elapsed time:       0 days  0 hours  0 minutes  7.8 seconds.
 File lengths (MBytes):  RWF=     75 Int=      0 D2E=      0 Chk=      2 Scr=      1
 Normal termination of Gaussian 16 at Wed Feb  8 13:54:15 2023.
