 Entering Gaussian System, Link 0=/opt/cluster/programs/g16-c.01/g16/g16
 Input=/scratch/boittier/jobs/tmp.7262526/gaussian_3_water_hf_pdz.com
 Output=/scratch/boittier/jobs/tmp.7262526/gaussian_3_water_hf_pdz.out
 Initial command:
 /opt/cluster/programs/g16-c.01/g16/l1.exe "/scratch/boittier/jobs/tmp.7262526/Gau-155774.inp" -scrdir="/scratch/boittier/jobs/tmp.7262526/"
 Entering Link 1 = /opt/cluster/programs/g16-c.01/g16/l1.exe PID=    155775.
  
 Copyright (c) 1988-2019, Gaussian, Inc.  All Rights Reserved.
  
 This is part of the Gaussian(R) 16 program.  It is based on
 the Gaussian(R) 09 system (copyright 2009, Gaussian, Inc.),
 the Gaussian(R) 03 system (copyright 2003, Gaussian, Inc.),
 the Gaussian(R) 98 system (copyright 1998, Gaussian, Inc.),
 the Gaussian(R) 94 system (copyright 1995, Gaussian, Inc.),
 the Gaussian 92(TM) system (copyright 1992, Gaussian, Inc.),
 the Gaussian 90(TM) system (copyright 1990, Gaussian, Inc.),
 the Gaussian 88(TM) system (copyright 1988, Gaussian, Inc.),
 the Gaussian 86(TM) system (copyright 1986, Carnegie Mellon
 University), and the Gaussian 82(TM) system (copyright 1983,
 Carnegie Mellon University). Gaussian is a federally registered
 trademark of Gaussian, Inc.
  
 This software contains proprietary and confidential information,
 including trade secrets, belonging to Gaussian, Inc.
  
 This software is provided under written license and may be
 used, copied, transmitted, or stored only in accord with that
 written license.
  
 The following legend is applicable only to US Government
 contracts under FAR:
  
                    RESTRICTED RIGHTS LEGEND
  
 Use, reproduction and disclosure by the US Government is
 subject to restrictions as set forth in subparagraphs (a)
 and (c) of the Commercial Computer Software - Restricted
 Rights clause in FAR 52.227-19.
  
 Gaussian, Inc.
 340 Quinnipiac St., Bldg. 40, Wallingford CT 06492
  
  
 ---------------------------------------------------------------
 Warning -- This program may not be used in any manner that
 competes with the business of Gaussian, Inc. or will provide
 assistance to any competitor of Gaussian, Inc.  The licensee
 of this program is prohibited from giving any competitor of
 Gaussian, Inc. access to this program.  By using this program,
 the user acknowledges that Gaussian, Inc. is engaged in the
 business of creating and licensing software in the field of
 computational chemistry and represents and warrants to the
 licensee that it is not a competitor of Gaussian, Inc. and that
 it will not use this program in any manner prohibited above.
 ---------------------------------------------------------------
  

 Cite this work as:
 Gaussian 16, Revision C.01,
 M. J. Frisch, G. W. Trucks, H. B. Schlegel, G. E. Scuseria, 
 M. A. Robb, J. R. Cheeseman, G. Scalmani, V. Barone, 
 G. A. Petersson, H. Nakatsuji, X. Li, M. Caricato, A. V. Marenich, 
 J. Bloino, B. G. Janesko, R. Gomperts, B. Mennucci, H. P. Hratchian, 
 J. V. Ortiz, A. F. Izmaylov, J. L. Sonnenberg, D. Williams-Young, 
 F. Ding, F. Lipparini, F. Egidi, J. Goings, B. Peng, A. Petrone, 
 T. Henderson, D. Ranasinghe, V. G. Zakrzewski, J. Gao, N. Rega, 
 G. Zheng, W. Liang, M. Hada, M. Ehara, K. Toyota, R. Fukuda, 
 J. Hasegawa, M. Ishida, T. Nakajima, Y. Honda, O. Kitao, H. Nakai, 
 T. Vreven, K. Throssell, J. A. Montgomery, Jr., J. E. Peralta, 
 F. Ogliaro, M. J. Bearpark, J. J. Heyd, E. N. Brothers, K. N. Kudin, 
 V. N. Staroverov, T. A. Keith, R. Kobayashi, J. Normand, 
 K. Raghavachari, A. P. Rendell, J. C. Burant, S. S. Iyengar, 
 J. Tomasi, M. Cossi, J. M. Millam, M. Klene, C. Adamo, R. Cammi, 
 J. W. Ochterski, R. L. Martin, K. Morokuma, O. Farkas, 
 J. B. Foresman, and D. J. Fox, Gaussian, Inc., Wallingford CT, 2019.
 
 ******************************************
 Gaussian 16:  ES64L-G16RevC.01  3-Jul-2019
                 8-Feb-2023 
 ******************************************
 %nproc=4
 Will use up to    4 processors via shared memory.
 %mem=5760MB
 %chk=gaussian_3_water_hf_pdz.chk
 ------------------------------
 #P HF/6-31g* scf(maxcycle=200)
 ------------------------------
 1/38=1,172=1/1;
 2/12=2,17=6,18=5,40=1/2;
 3/5=1,6=6,7=1,11=9,25=1,30=1/1,2,3;
 4//1;
 5/5=2,7=200,38=5/2;
 6/7=2,8=2,9=2,10=2,28=1/1;
 99/5=1,9=1/99;
 Leave Link    1 at Wed Feb  8 15:04:38 2023, MaxMem=   754974720 cpu:               0.1 elap:               0.1
 (Enter /opt/cluster/programs/g16-c.01/g16/l101.exe)
 --------------
 Gaussian input
 --------------
 Symbolic Z-matrix:
 Charge =  0 Multiplicity = 1
 O                     0.        0.11751   0. 
 H                     0.71834  -0.43951   0. 
 H                    -0.56265  -0.59643   0. 
 
 ITRead=  0  0  0
 MicOpt= -1 -1 -1
 NAtoms=      3 NQM=        3 NQMF=       0 NMMI=      0 NMMIF=      0
                NMic=       0 NMicF=      0.
                    Isotopes and Nuclear Properties:
 (Nuclear quadrupole moments (NQMom) in fm**2, nuclear magnetic moments (NMagM)
  in nuclear magnetons)

  Atom         1           2           3
 IAtWgt=          16           1           1
 AtmWgt=  15.9949146   1.0078250   1.0078250
 NucSpn=           0           1           1
 AtZEff=  -0.0000000  -0.0000000  -0.0000000
 NQMom=    0.0000000   0.0000000   0.0000000
 NMagM=    0.0000000   2.7928460   2.7928460
 AtZNuc=   8.0000000   1.0000000   1.0000000
 Leave Link  101 at Wed Feb  8 15:04:38 2023, MaxMem=   754974720 cpu:               0.5 elap:               0.2
 (Enter /opt/cluster/programs/g16-c.01/g16/l202.exe)
                          Input orientation:                          
 ---------------------------------------------------------------------
 Center     Atomic      Atomic             Coordinates (Angstroms)
 Number     Number       Type             X           Y           Z
 ---------------------------------------------------------------------
      1          8           0        0.000000    0.117510    0.000000
      2          1           0        0.718337   -0.439511    0.000000
      3          1           0       -0.562646   -0.596430    0.000000
 ---------------------------------------------------------------------
                    Distance matrix (angstroms):
                    1          2          3
     1  O    0.000000
     2  H    0.909000   0.000000
     3  H    0.909000   1.290558   0.000000
 Stoichiometry    H2O
 Framework group  C2V[C2(O),SGV(H2)]
 Deg. of freedom     2
 Full point group                 C2V     NOp   4
 Largest Abelian subgroup         C2V     NOp   4
 Largest concise Abelian subgroup C2      NOp   2
                         Standard orientation:                         
 ---------------------------------------------------------------------
 Center     Atomic      Atomic             Coordinates (Angstroms)
 Number     Number       Type             X           Y           Z
 ---------------------------------------------------------------------
      1          8           0        0.000000    0.000000    0.128046
      2          1           0        0.000000    0.645279   -0.512185
      3          1           0       -0.000000   -0.645279   -0.512185
 ---------------------------------------------------------------------
 Rotational constants (GHZ):         688.7697487         602.1527984         321.2777037
 Leave Link  202 at Wed Feb  8 15:04:39 2023, MaxMem=   754974720 cpu:               0.1 elap:               0.0
 (Enter /opt/cluster/programs/g16-c.01/g16/l301.exe)
 Standard basis: 6-31G(d) (6D, 7F)
 Ernie: Thresh=  0.10000D-02 Tol=  0.10000D-05 Strict=F.
 There are    10 symmetry adapted cartesian basis functions of A1  symmetry.
 There are     1 symmetry adapted cartesian basis functions of A2  symmetry.
 There are     3 symmetry adapted cartesian basis functions of B1  symmetry.
 There are     5 symmetry adapted cartesian basis functions of B2  symmetry.
 There are    10 symmetry adapted basis functions of A1  symmetry.
 There are     1 symmetry adapted basis functions of A2  symmetry.
 There are     3 symmetry adapted basis functions of B1  symmetry.
 There are     5 symmetry adapted basis functions of B2  symmetry.
    19 basis functions,    36 primitive gaussians,    19 cartesian basis functions
     5 alpha electrons        5 beta electrons
       nuclear repulsion energy         9.7244877481 Hartrees.
 IExCor=    0 DFT=F Ex=HF Corr=None ExCW=0 ScaHFX=  1.000000
 ScaDFX=  1.000000  1.000000  1.000000  1.000000 ScalE2=  1.000000  1.000000
 IRadAn=      5 IRanWt=     -1 IRanGd=            0 ICorTp=0 IEmpDi=  4
 NAtoms=    3 NActive=    3 NUniq=    2 SFac= 2.25D+00 NAtFMM=   60 NAOKFM=F Big=F
 Integral buffers will be    131072 words long.
 Raffenetti 1 integral format.
 Two-electron integral symmetry is turned on.
 Leave Link  301 at Wed Feb  8 15:04:39 2023, MaxMem=   754974720 cpu:               0.1 elap:               0.0
 (Enter /opt/cluster/programs/g16-c.01/g16/l302.exe)
 NPDir=0 NMtPBC=     1 NCelOv=     1 NCel=       1 NClECP=     1 NCelD=      1
         NCelK=      1 NCelE2=     1 NClLst=     1 CellRange=     0.0.
 One-electron integrals computed using PRISM.
 One-electron integral symmetry used in STVInt
 NBasis=    19 RedAO= T EigKep=  2.06D-02  NBF=    10     1     3     5
 NBsUse=    19 1.00D-06 EigRej= -1.00D+00 NBFU=    10     1     3     5
 Leave Link  302 at Wed Feb  8 15:04:39 2023, MaxMem=   754974720 cpu:               0.6 elap:               0.3
 (Enter /opt/cluster/programs/g16-c.01/g16/l303.exe)
 DipDrv:  MaxL=1.
 Leave Link  303 at Wed Feb  8 15:04:39 2023, MaxMem=   754974720 cpu:               0.2 elap:               0.1
 (Enter /opt/cluster/programs/g16-c.01/g16/l401.exe)
 ExpMin= 1.61D-01 ExpMax= 5.48D+03 ExpMxC= 8.25D+02 IAcc=3 IRadAn=         5 AccDes= 0.00D+00
 Harris functional with IExCor=  205 and IRadAn=       5 diagonalized for initial guess.
 HarFok:  IExCor=  205 AccDes= 0.00D+00 IRadAn=         5 IDoV= 1 UseB2=F ITyADJ=14
 ICtDFT=  3500011 ScaDFX=  1.000000  1.000000  1.000000  1.000000
 FoFCou: FMM=F IPFlag=           0 FMFlag=      100000 FMFlg1=           0
         NFxFlg=           0 DoJE=T BraDBF=F KetDBF=T FulRan=T
         wScrn=  0.000000 ICntrl=       500 IOpCl=  0 I1Cent=   200000004 NGrid=           0
         NMat0=    1 NMatS0=      1 NMatT0=    0 NMatD0=    1 NMtDS0=    0 NMtDT0=    0
 Petite list used in FoFCou.
 Harris En= -76.0917187170592    
 JPrj=0 DoOrth=F DoCkMO=F.
 Initial guess orbital symmetries:
       Occupied  (A1) (A1) (B2) (A1) (B1)
       Virtual   (A1) (B2) (B2) (A1) (B1) (A1) (B2) (A1) (A1) (A2)
                 (B1) (A1) (B2) (A1)
 The electronic state of the initial guess is 1-A1.
 Leave Link  401 at Wed Feb  8 15:04:40 2023, MaxMem=   754974720 cpu:               1.2 elap:               0.4
 (Enter /opt/cluster/programs/g16-c.01/g16/l502.exe)
 Keep R1 ints in memory in symmetry-blocked form, NReq=845815.
 FoFCou: FMM=F IPFlag=           0 FMFlag=           0 FMFlg1=           0
         NFxFlg=           0 DoJE=F BraDBF=F KetDBF=F FulRan=T
         wScrn=  0.000000 ICntrl=       600 IOpCl=  0 I1Cent=           0 NGrid=           0
         NMat0=    1 NMatS0=    190 NMatT0=    0 NMatD0=    1 NMtDS0=    0 NMtDT0=    0
 Petite list used in FoFCou.
 Closed shell SCF:
 Using DIIS extrapolation, IDIIS=  1040.
 NGot=   754974720 LenX=   754966727 LenY=   754965845
 Requested convergence on RMS density matrix=1.00D-08 within 200 cycles.
 Requested convergence on MAX density matrix=1.00D-06.
 Requested convergence on             energy=1.00D-06.
 No special actions if energy rises.

 Cycle   1  Pass 1  IDiag  1:
 E= -75.9104064176529    
 DIIS: error= 8.21D-02 at cycle   1 NSaved=   1.
 NSaved= 1 IEnMin= 1 EnMin= -75.9104064176529     IErMin= 1 ErrMin= 8.21D-02
 ErrMax= 8.21D-02  0.00D+00 EMaxC= 1.00D-01 BMatC= 1.41D-01 BMatP= 1.41D-01
 IDIUse=3 WtCom= 1.79D-01 WtEn= 8.21D-01
 Coeff-Com:  0.100D+01
 Coeff-En:   0.100D+01
 Coeff:      0.100D+01
 Gap=     0.595 Goal=   None    Shift=    0.000
 GapD=    0.595 DampG=2.000 DampE=0.500 DampFc=1.0000 IDamp=-1.
 RMSDP=1.60D-02 MaxDP=1.23D-01              OVMax= 1.28D-01

 Cycle   2  Pass 1  IDiag  1:
 E= -75.9718904372114     Delta-E=       -0.061484019558 Rises=F Damp=F
 DIIS: error= 5.11D-02 at cycle   2 NSaved=   2.
 NSaved= 2 IEnMin= 2 EnMin= -75.9718904372114     IErMin= 2 ErrMin= 5.11D-02
 ErrMax= 5.11D-02  0.00D+00 EMaxC= 1.00D-01 BMatC= 4.16D-02 BMatP= 1.41D-01
 IDIUse=3 WtCom= 4.89D-01 WtEn= 5.11D-01
 Coeff-Com:  0.334D+00 0.666D+00
 Coeff-En:   0.709D-01 0.929D+00
 Coeff:      0.200D+00 0.800D+00
 Gap=     0.747 Goal=   None    Shift=    0.000
 RMSDP=7.79D-03 MaxDP=5.95D-02 DE=-6.15D-02 OVMax= 4.98D-02

 Cycle   3  Pass 1  IDiag  1:
 E= -75.9969685196399     Delta-E=       -0.025078082429 Rises=F Damp=F
 DIIS: error= 1.27D-02 at cycle   3 NSaved=   3.
 NSaved= 3 IEnMin= 3 EnMin= -75.9969685196399     IErMin= 3 ErrMin= 1.27D-02
 ErrMax= 1.27D-02  0.00D+00 EMaxC= 1.00D-01 BMatC= 2.63D-03 BMatP= 4.16D-02
 IDIUse=3 WtCom= 8.73D-01 WtEn= 1.27D-01
 Coeff-Com: -0.259D-01 0.173D+00 0.853D+00
 Coeff-En:   0.000D+00 0.000D+00 0.100D+01
 Coeff:     -0.226D-01 0.151D+00 0.871D+00
 Gap=     0.717 Goal=   None    Shift=    0.000
 RMSDP=1.58D-03 MaxDP=1.26D-02 DE=-2.51D-02 OVMax= 1.34D-02

 Cycle   4  Pass 1  IDiag  1:
 E= -75.9988087175020     Delta-E=       -0.001840197862 Rises=F Damp=F
 DIIS: error= 1.48D-03 at cycle   4 NSaved=   4.
 NSaved= 4 IEnMin= 4 EnMin= -75.9988087175020     IErMin= 4 ErrMin= 1.48D-03
 ErrMax= 1.48D-03  0.00D+00 EMaxC= 1.00D-01 BMatC= 2.30D-05 BMatP= 2.63D-03
 IDIUse=3 WtCom= 9.85D-01 WtEn= 1.48D-02
 Coeff-Com:  0.612D-02-0.768D-01-0.234D+00 0.130D+01
 Coeff-En:   0.000D+00 0.000D+00 0.000D+00 0.100D+01
 Coeff:      0.603D-02-0.756D-01-0.230D+00 0.130D+01
 Gap=     0.721 Goal=   None    Shift=    0.000
 RMSDP=2.02D-04 MaxDP=1.91D-03 DE=-1.84D-03 OVMax= 1.55D-03

 Cycle   5  Pass 1  IDiag  1:
 E= -75.9988277239438     Delta-E=       -0.000019006442 Rises=F Damp=F
 DIIS: error= 1.22D-04 at cycle   5 NSaved=   5.
 NSaved= 5 IEnMin= 5 EnMin= -75.9988277239438     IErMin= 5 ErrMin= 1.22D-04
 ErrMax= 1.22D-04  0.00D+00 EMaxC= 1.00D-01 BMatC= 1.02D-07 BMatP= 2.30D-05
 IDIUse=3 WtCom= 9.99D-01 WtEn= 1.22D-03
 Coeff-Com: -0.518D-03 0.112D-01 0.273D-01-0.270D+00 0.123D+01
 Coeff-En:   0.000D+00 0.000D+00 0.000D+00 0.000D+00 0.100D+01
 Coeff:     -0.517D-03 0.112D-01 0.273D-01-0.269D+00 0.123D+01
 Gap=     0.721 Goal=   None    Shift=    0.000
 RMSDP=3.27D-05 MaxDP=2.35D-04 DE=-1.90D-05 OVMax= 2.54D-04

 Cycle   6  Pass 1  IDiag  1:
 E= -75.9988279571314     Delta-E=       -0.000000233188 Rises=F Damp=F
 DIIS: error= 1.84D-05 at cycle   6 NSaved=   6.
 NSaved= 6 IEnMin= 6 EnMin= -75.9988279571314     IErMin= 6 ErrMin= 1.84D-05
 ErrMax= 1.84D-05  0.00D+00 EMaxC= 1.00D-01 BMatC= 2.99D-09 BMatP= 1.02D-07
 IDIUse=1 WtCom= 1.00D+00 WtEn= 0.00D+00
 Coeff-Com: -0.144D-03 0.100D-02 0.421D-02-0.356D-02-0.225D+00 0.122D+01
 Coeff:     -0.144D-03 0.100D-02 0.421D-02-0.356D-02-0.225D+00 0.122D+01
 Gap=     0.721 Goal=   None    Shift=    0.000
 RMSDP=6.79D-06 MaxDP=4.31D-05 DE=-2.33D-07 OVMax= 5.13D-05

 Cycle   7  Pass 1  IDiag  1:
 E= -75.9988279639487     Delta-E=       -0.000000006817 Rises=F Damp=F
 DIIS: error= 2.57D-06 at cycle   7 NSaved=   7.
 NSaved= 7 IEnMin= 7 EnMin= -75.9988279639487     IErMin= 7 ErrMin= 2.57D-06
 ErrMax= 2.57D-06  0.00D+00 EMaxC= 1.00D-01 BMatC= 7.64D-11 BMatP= 2.99D-09
 IDIUse=1 WtCom= 1.00D+00 WtEn= 0.00D+00
 Coeff-Com:  0.537D-04-0.570D-03-0.192D-02 0.787D-02 0.378D-01-0.340D+00
 Coeff-Com:  0.130D+01
 Coeff:      0.537D-04-0.570D-03-0.192D-02 0.787D-02 0.378D-01-0.340D+00
 Coeff:      0.130D+01
 Gap=     0.721 Goal=   None    Shift=    0.000
 RMSDP=7.13D-07 MaxDP=6.58D-06 DE=-6.82D-09 OVMax= 6.36D-06

 Cycle   8  Pass 1  IDiag  1:
 E= -75.9988279641027     Delta-E=       -0.000000000154 Rises=F Damp=F
 DIIS: error= 5.47D-07 at cycle   8 NSaved=   8.
 NSaved= 8 IEnMin= 8 EnMin= -75.9988279641027     IErMin= 8 ErrMin= 5.47D-07
 ErrMax= 5.47D-07  0.00D+00 EMaxC= 1.00D-01 BMatC= 2.82D-12 BMatP= 7.64D-11
 IDIUse=1 WtCom= 1.00D+00 WtEn= 0.00D+00
 Coeff-Com: -0.733D-05 0.108D-03 0.319D-03-0.210D-02 0.183D-02 0.297D-01
 Coeff-Com: -0.316D+00 0.129D+01
 Coeff:     -0.733D-05 0.108D-03 0.319D-03-0.210D-02 0.183D-02 0.297D-01
 Coeff:     -0.316D+00 0.129D+01
 Gap=     0.721 Goal=   None    Shift=    0.000
 RMSDP=1.72D-07 MaxDP=1.20D-06 DE=-1.54D-10 OVMax= 1.38D-06

 Cycle   9  Pass 1  IDiag  1:
 E= -75.9988279641095     Delta-E=       -0.000000000007 Rises=F Damp=F
 DIIS: error= 7.65D-08 at cycle   9 NSaved=   9.
 NSaved= 9 IEnMin= 9 EnMin= -75.9988279641095     IErMin= 9 ErrMin= 7.65D-08
 ErrMax= 7.65D-08  0.00D+00 EMaxC= 1.00D-01 BMatC= 7.39D-14 BMatP= 2.82D-12
 IDIUse=1 WtCom= 1.00D+00 WtEn= 0.00D+00
 Coeff-Com:  0.539D-06-0.161D-04-0.396D-04 0.425D-03-0.179D-02 0.792D-03
 Coeff-Com:  0.650D-01-0.425D+00 0.136D+01
 Coeff:      0.539D-06-0.161D-04-0.396D-04 0.425D-03-0.179D-02 0.792D-03
 Coeff:      0.650D-01-0.425D+00 0.136D+01
 Gap=     0.721 Goal=   None    Shift=    0.000
 RMSDP=3.97D-08 MaxDP=2.58D-07 DE=-6.85D-12 OVMax= 3.56D-07

 Cycle  10  Pass 1  IDiag  1:
 E= -75.9988279641098     Delta-E=       -0.000000000000 Rises=F Damp=F
 DIIS: error= 9.58D-09 at cycle  10 NSaved=  10.
 NSaved=10 IEnMin=10 EnMin= -75.9988279641098     IErMin=10 ErrMin= 9.58D-09
 ErrMax= 9.58D-09  0.00D+00 EMaxC= 1.00D-01 BMatC= 1.33D-15 BMatP= 7.39D-14
 IDIUse=1 WtCom= 1.00D+00 WtEn= 0.00D+00
 Coeff-Com:  0.160D-07 0.180D-05 0.353D-05-0.655D-04 0.405D-03-0.766D-03
 Coeff-Com: -0.887D-02 0.663D-01-0.279D+00 0.122D+01
 Coeff:      0.160D-07 0.180D-05 0.353D-05-0.655D-04 0.405D-03-0.766D-03
 Coeff:     -0.887D-02 0.663D-01-0.279D+00 0.122D+01
 Gap=     0.721 Goal=   None    Shift=    0.000
 RMSDP=3.63D-09 MaxDP=1.78D-08 DE=-2.56D-13 OVMax= 3.51D-08

 SCF Done:  E(RHF) =  -75.9988279641     A.U. after   10 cycles
            NFock= 10  Conv=0.36D-08     -V/T= 1.9992
 KE= 7.605722066967D+01 PE=-1.999847835235D+02 EE= 3.820424714165D+01
 Leave Link  502 at Wed Feb  8 15:04:40 2023, MaxMem=   754974720 cpu:               1.8 elap:               0.6
 (Enter /opt/cluster/programs/g16-c.01/g16/l601.exe)
 Copying SCF densities to generalized density rwf, IOpCl= 0 IROHF=0.

 **********************************************************************

            Population analysis using the SCF Density.

 **********************************************************************

 Orbital symmetries:
       Occupied  (A1) (A1) (B2) (A1) (B1)
       Virtual   (A1) (B2) (B2) (A1) (B1) (A1) (B2) (A1) (A1) (A2)
                 (B1) (A1) (B2) (A1)
 The electronic state is 1-A1.
 Alpha  occ. eigenvalues --  -20.55725  -1.38334  -0.70227  -0.61011  -0.50657
 Alpha virt. eigenvalues --    0.21476   0.31697   0.99239   1.12854   1.16430
 Alpha virt. eigenvalues --    1.28349   1.39146   1.48758   1.97416   2.03534
 Alpha virt. eigenvalues --    2.04157   2.73047   2.96823   3.96438
          Condensed to atoms (all electrons):
               1          2          3
     1  O    8.292717   0.274969   0.274969
     2  H    0.274969   0.333677  -0.029973
     3  H    0.274969  -0.029973   0.333677
 Mulliken charges:
               1
     1  O   -0.842654
     2  H    0.421327
     3  H    0.421327
 Sum of Mulliken charges =  -0.00000
 Mulliken charges with hydrogens summed into heavy atoms:
               1
     1  O   -0.000000
 Electronic spatial extent (au):  <R**2>=             18.3611
 Charge=             -0.0000 electrons
 Dipole moment (field-independent basis, Debye):
    X=             -0.0000    Y=              0.0000    Z=             -2.4083  Tot=              2.4083
 Quadrupole moment (field-independent basis, Debye-Ang):
   XX=             -7.1292   YY=             -4.8253   ZZ=             -5.5917
   XY=              0.0000   XZ=              0.0000   YZ=             -0.0000
 Traceless Quadrupole moment (field-independent basis, Debye-Ang):
   XX=             -1.2804   YY=              1.0235   ZZ=              0.2570
   XY=              0.0000   XZ=              0.0000   YZ=             -0.0000
 Octapole moment (field-independent basis, Debye-Ang**2):
  XXX=              0.0000  YYY=              0.0000  ZZZ=             -1.7440  XYY=             -0.0000
  XXY=             -0.0000  XXZ=             -0.4559  XZZ=             -0.0000  YZZ=              0.0000
  YYZ=             -1.1543  XYZ=             -0.0000
 Hexadecapole moment (field-independent basis, Debye-Ang**3):
 XXXX=             -5.0988 YYYY=             -5.5105 ZZZZ=             -5.9028 XXXY=             -0.0000
 XXXZ=             -0.0000 YYYX=             -0.0000 YYYZ=             -0.0000 ZZZX=             -0.0000
 ZZZY=             -0.0000 XXYY=             -1.8955 XXZZ=             -1.9048 YYZZ=             -1.5562
 XXYZ=              0.0000 YYXZ=              0.0000 ZZXY=              0.0000
 N-N= 9.724487748103D+00 E-N=-1.999847836136D+02  KE= 7.605722066967D+01
 Symmetry A1   KE= 6.778330416012D+01
 Symmetry A2   KE= 3.078845015503D-35
 Symmetry B1   KE= 4.562827337307D+00
 Symmetry B2   KE= 3.711089172244D+00
 No NMR shielding tensors so no spin-rotation constants.
 Leave Link  601 at Wed Feb  8 15:04:41 2023, MaxMem=   754974720 cpu:               1.2 elap:               0.6
 (Enter /opt/cluster/programs/g16-c.01/g16/l9999.exe)
 Unable to Open any file for archive entry.
 1\1\GINC-NODE60\SP\RHF\6-31G(d)\H2O1\BOITTIER\08-Feb-2023\0\\#P HF/6-3
 1g* scf(maxcycle=200)\\Gaussian input\\0,1\O,0,0.,0.11751,0.\H,0,0.718
 3372325,-0.4395112028,0.\H,0,-0.5626457724,-0.596430288,0.\\Version=ES
 64L-G16RevC.01\State=1-A1\HF=-75.998828\RMSD=3.633e-09\Dipole=0.115208
 7,-0.9404873,0.\Quadrupole=0.7524853,0.1994839,-0.9519692,0.0687741,0.
 ,0.\PG=C02V [C2(O1),SGV(H2)]\\@
 The archive entry for this job was punched.


 LOGIC IS A SYSTEMATIC METHOD OF COMING TO THE
 WRONG CONCLUSION WITH CONFIDENCE.
 Job cpu time:       0 days  0 hours  0 minutes  6.0 seconds.
 Elapsed time:       0 days  0 hours  0 minutes  2.4 seconds.
 File lengths (MBytes):  RWF=      6 Int=      0 D2E=      0 Chk=      1 Scr=      1
 Normal termination of Gaussian 16 at Wed Feb  8 15:04:41 2023.
