 Entering Gaussian System, Link 0=/opt/cluster/programs/g16-c.01/g16/g16
 Input=/scratch/boittier/jobs/tmp.7262114/gaussian_171_water_wb97_ptz.com
 Output=/scratch/boittier/jobs/tmp.7262114/gaussian_171_water_wb97_ptz.out
 Initial command:
 /opt/cluster/programs/g16-c.01/g16/l1.exe "/scratch/boittier/jobs/tmp.7262114/Gau-174822.inp" -scrdir="/scratch/boittier/jobs/tmp.7262114/"
 Entering Link 1 = /opt/cluster/programs/g16-c.01/g16/l1.exe PID=    174823.
  
 Copyright (c) 1988-2019, Gaussian, Inc.  All Rights Reserved.
  
 This is part of the Gaussian(R) 16 program.  It is based on
 the Gaussian(R) 09 system (copyright 2009, Gaussian, Inc.),
 the Gaussian(R) 03 system (copyright 2003, Gaussian, Inc.),
 the Gaussian(R) 98 system (copyright 1998, Gaussian, Inc.),
 the Gaussian(R) 94 system (copyright 1995, Gaussian, Inc.),
 the Gaussian 92(TM) system (copyright 1992, Gaussian, Inc.),
 the Gaussian 90(TM) system (copyright 1990, Gaussian, Inc.),
 the Gaussian 88(TM) system (copyright 1988, Gaussian, Inc.),
 the Gaussian 86(TM) system (copyright 1986, Carnegie Mellon
 University), and the Gaussian 82(TM) system (copyright 1983,
 Carnegie Mellon University). Gaussian is a federally registered
 trademark of Gaussian, Inc.
  
 This software contains proprietary and confidential information,
 including trade secrets, belonging to Gaussian, Inc.
  
 This software is provided under written license and may be
 used, copied, transmitted, or stored only in accord with that
 written license.
  
 The following legend is applicable only to US Government
 contracts under FAR:
  
                    RESTRICTED RIGHTS LEGEND
  
 Use, reproduction and disclosure by the US Government is
 subject to restrictions as set forth in subparagraphs (a)
 and (c) of the Commercial Computer Software - Restricted
 Rights clause in FAR 52.227-19.
  
 Gaussian, Inc.
 340 Quinnipiac St., Bldg. 40, Wallingford CT 06492
  
  
 ---------------------------------------------------------------
 Warning -- This program may not be used in any manner that
 competes with the business of Gaussian, Inc. or will provide
 assistance to any competitor of Gaussian, Inc.  The licensee
 of this program is prohibited from giving any competitor of
 Gaussian, Inc. access to this program.  By using this program,
 the user acknowledges that Gaussian, Inc. is engaged in the
 business of creating and licensing software in the field of
 computational chemistry and represents and warrants to the
 licensee that it is not a competitor of Gaussian, Inc. and that
 it will not use this program in any manner prohibited above.
 ---------------------------------------------------------------
  

 Cite this work as:
 Gaussian 16, Revision C.01,
 M. J. Frisch, G. W. Trucks, H. B. Schlegel, G. E. Scuseria, 
 M. A. Robb, J. R. Cheeseman, G. Scalmani, V. Barone, 
 G. A. Petersson, H. Nakatsuji, X. Li, M. Caricato, A. V. Marenich, 
 J. Bloino, B. G. Janesko, R. Gomperts, B. Mennucci, H. P. Hratchian, 
 J. V. Ortiz, A. F. Izmaylov, J. L. Sonnenberg, D. Williams-Young, 
 F. Ding, F. Lipparini, F. Egidi, J. Goings, B. Peng, A. Petrone, 
 T. Henderson, D. Ranasinghe, V. G. Zakrzewski, J. Gao, N. Rega, 
 G. Zheng, W. Liang, M. Hada, M. Ehara, K. Toyota, R. Fukuda, 
 J. Hasegawa, M. Ishida, T. Nakajima, Y. Honda, O. Kitao, H. Nakai, 
 T. Vreven, K. Throssell, J. A. Montgomery, Jr., J. E. Peralta, 
 F. Ogliaro, M. J. Bearpark, J. J. Heyd, E. N. Brothers, K. N. Kudin, 
 V. N. Staroverov, T. A. Keith, R. Kobayashi, J. Normand, 
 K. Raghavachari, A. P. Rendell, J. C. Burant, S. S. Iyengar, 
 J. Tomasi, M. Cossi, J. M. Millam, M. Klene, C. Adamo, R. Cammi, 
 J. W. Ochterski, R. L. Martin, K. Morokuma, O. Farkas, 
 J. B. Foresman, and D. J. Fox, Gaussian, Inc., Wallingford CT, 2019.
 
 ******************************************
 Gaussian 16:  ES64L-G16RevC.01  3-Jul-2019
                 8-Feb-2023 
 ******************************************
 %nproc=4
 Will use up to    4 processors via shared memory.
 %mem=5760MB
 %chk=gaussian_171_water_wb97_ptz.chk
 ------------------------------------
 #P wB97XD/6-311g** scf(maxcycle=200)
 ------------------------------------
 1/38=1,172=1/1;
 2/12=2,17=6,18=5,40=1/2;
 3/5=4,6=6,7=101,11=2,25=1,30=1,74=-58/1,2,3;
 4//1;
 5/5=2,7=200,38=5/2;
 6/7=2,8=2,9=2,10=2,28=1/1;
 99/5=1,9=1/99;
 Leave Link    1 at Wed Feb  8 14:42:58 2023, MaxMem=   754974720 cpu:               0.1 elap:               0.0
 (Enter /opt/cluster/programs/g16-c.01/g16/l101.exe)
 --------------
 Gaussian input
 --------------
 Symbolic Z-matrix:
 Charge =  0 Multiplicity = 1
 O                     0.        0.11751   0. 
 H                     0.79736  -0.50079   0. 
 H                    -0.81879  -0.47212   0. 
 
 ITRead=  0  0  0
 MicOpt= -1 -1 -1
 NAtoms=      3 NQM=        3 NQMF=       0 NMMI=      0 NMMIF=      0
                NMic=       0 NMicF=      0.
                    Isotopes and Nuclear Properties:
 (Nuclear quadrupole moments (NQMom) in fm**2, nuclear magnetic moments (NMagM)
  in nuclear magnetons)

  Atom         1           2           3
 IAtWgt=          16           1           1
 AtmWgt=  15.9949146   1.0078250   1.0078250
 NucSpn=           0           1           1
 AtZEff=  -0.0000000  -0.0000000  -0.0000000
 NQMom=    0.0000000   0.0000000   0.0000000
 NMagM=    0.0000000   2.7928460   2.7928460
 AtZNuc=   8.0000000   1.0000000   1.0000000
 Leave Link  101 at Wed Feb  8 14:42:59 2023, MaxMem=   754974720 cpu:               0.3 elap:               0.2
 (Enter /opt/cluster/programs/g16-c.01/g16/l202.exe)
                          Input orientation:                          
 ---------------------------------------------------------------------
 Center     Atomic      Atomic             Coordinates (Angstroms)
 Number     Number       Type             X           Y           Z
 ---------------------------------------------------------------------
      1          8           0        0.000000    0.117510    0.000000
      2          1           0        0.797362   -0.500790    0.000000
      3          1           0       -0.818787   -0.472125    0.000000
 ---------------------------------------------------------------------
                    Distance matrix (angstroms):
                    1          2          3
     1  O    0.000000
     2  H    1.009000   0.000000
     3  H    1.009000   1.616403   0.000000
 Stoichiometry    H2O
 Framework group  C2V[C2(O),SGV(H2)]
 Deg. of freedom     2
 Full point group                 C2V     NOp   4
 Largest Abelian subgroup         C2V     NOp   4
 Largest concise Abelian subgroup C2      NOp   2
                         Standard orientation:                         
 ---------------------------------------------------------------------
 Center     Atomic      Atomic             Coordinates (Angstroms)
 Number     Number       Type             X           Y           Z
 ---------------------------------------------------------------------
      1          8           0        0.000000    0.000000    0.120812
      2          1           0        0.000000    0.808202   -0.483250
      3          1           0       -0.000000   -0.808202   -0.483250
 ---------------------------------------------------------------------
 Rotational constants (GHZ):         773.7205107         383.8509739         256.5659016
 Leave Link  202 at Wed Feb  8 14:42:59 2023, MaxMem=   754974720 cpu:               0.3 elap:               0.1
 (Enter /opt/cluster/programs/g16-c.01/g16/l301.exe)
 Standard basis: 6-311G(d,p) (5D, 7F)
 Ernie: Thresh=  0.10000D-02 Tol=  0.10000D-05 Strict=F.
 There are    15 symmetry adapted cartesian basis functions of A1  symmetry.
 There are     2 symmetry adapted cartesian basis functions of A2  symmetry.
 There are     5 symmetry adapted cartesian basis functions of B1  symmetry.
 There are     9 symmetry adapted cartesian basis functions of B2  symmetry.
 There are    14 symmetry adapted basis functions of A1  symmetry.
 There are     2 symmetry adapted basis functions of A2  symmetry.
 There are     5 symmetry adapted basis functions of B1  symmetry.
 There are     9 symmetry adapted basis functions of B2  symmetry.
    30 basis functions,    48 primitive gaussians,    31 cartesian basis functions
     5 alpha electrons        5 beta electrons
       nuclear repulsion energy         8.7186930145 Hartrees.
 IExCor= 4639 DFT=T Ex+Corr=wB97XD ExCW=0 ScaHFX=  1.000000
 ScaDFX=  1.000000  1.000000  1.000000  1.000000 ScalE2=  1.000000  1.000000
 IRadAn=      5 IRanWt=     -1 IRanGd=            0 ICorTp=0 IEmpDi=121
 HFx  wShort=  0.000000 wLong=  0.200000 cFull=  0.222036 cShort=  0.000000 cLong=  0.777964
 DFx  wShort=  0.000000 wLong=  0.200000 cFull=  0.000000 cShort=  0.000000 cLong=  1.000000
 NAtoms=    3 NActive=    3 NUniq=    2 SFac= 2.25D+00 NAtFMM=   60 NAOKFM=F Big=F
 Integral buffers will be    131072 words long.
 Raffenetti 2 integral format.
 Two-electron integral symmetry is turned on.
 R6Disp:  Grimme-D2 Dispersion energy=       -0.0000392874 Hartrees.
 Nuclear repulsion after empirical dispersion term =        8.7186537271 Hartrees.
 Leave Link  301 at Wed Feb  8 14:42:59 2023, MaxMem=   754974720 cpu:               0.2 elap:               0.1
 (Enter /opt/cluster/programs/g16-c.01/g16/l302.exe)
 NPDir=0 NMtPBC=     1 NCelOv=     1 NCel=       1 NClECP=     1 NCelD=      1
         NCelK=      1 NCelE2=     1 NClLst=     1 CellRange=     0.0.
 One-electron integrals computed using PRISM.
 One-electron integral symmetry used in STVInt
 NBasis=    30 RedAO= T EigKep=  2.20D-02  NBF=    14     2     5     9
 NBsUse=    30 1.00D-06 EigRej= -1.00D+00 NBFU=    14     2     5     9
 Precomputing XC quadrature grid using
 IXCGrd= 4 IRadAn=           5 IRanWt=          -1 IRanGd=           0 AccXCQ= 0.00D+00.
 Generated NRdTot=       0 NPtTot=           0 NUsed=           0 NTot=          32
 NSgBfM=    31    31    31    31    31 MxSgAt=     3 MxSgA2=     3.
 Leave Link  302 at Wed Feb  8 14:42:59 2023, MaxMem=   754974720 cpu:               0.7 elap:               0.2
 (Enter /opt/cluster/programs/g16-c.01/g16/l303.exe)
 DipDrv:  MaxL=1.
 Leave Link  303 at Wed Feb  8 14:42:59 2023, MaxMem=   754974720 cpu:               0.5 elap:               0.3
 (Enter /opt/cluster/programs/g16-c.01/g16/l401.exe)
 ExpMin= 1.03D-01 ExpMax= 8.59D+03 ExpMxC= 1.30D+03 IAcc=3 IRadAn=         5 AccDes= 0.00D+00
 Harris functional with IExCor= 4639 and IRadAn=       5 diagonalized for initial guess.
 HarFok:  IExCor= 4639 AccDes= 0.00D+00 IRadAn=         5 IDoV= 1 UseB2=F ITyADJ=14
 ICtDFT=  3500011 ScaDFX=  1.000000  1.000000  1.000000  1.000000
 FoFCou: FMM=F IPFlag=           0 FMFlag=      100000 FMFlg1=           0
         NFxFlg=           0 DoJE=T BraDBF=F KetDBF=T FulRan=T
         wScrn=  0.000000 ICntrl=       500 IOpCl=  0 I1Cent=   200000004 NGrid=           0
         NMat0=    1 NMatS0=      1 NMatT0=    0 NMatD0=    1 NMtDS0=    0 NMtDT0=    0
 Petite list used in FoFCou.
 Harris En= -73.6183030647659    
 JPrj=0 DoOrth=F DoCkMO=F.
 Initial guess orbital symmetries:
       Occupied  (A1) (A1) (B2) (A1) (B1)
       Virtual   (A1) (B2) (B2) (A1) (A1) (B1) (B2) (A1) (A2) (A1)
                 (B1) (B2) (B2) (A1) (A1) (B2) (B1) (A2) (A1) (A1)
                 (B2) (B1) (A1) (B2) (A1)
 The electronic state of the initial guess is 1-A1.
 Leave Link  401 at Wed Feb  8 14:43:00 2023, MaxMem=   754974720 cpu:               1.3 elap:               0.4
 (Enter /opt/cluster/programs/g16-c.01/g16/l502.exe)
 Keep R1 ints in memory in symmetry-blocked form, NReq=3688799.
 FoFCou: FMM=F IPFlag=           0 FMFlag=           0 FMFlg1=           0
         NFxFlg=           0 DoJE=F BraDBF=F KetDBF=F FulRan=T
         wScrn=  0.000000 ICntrl=       600 IOpCl=  0 I1Cent=           0 NGrid=           0
         NMat0=    1 NMatS0=    465 NMatT0=    0 NMatD0=    1 NMtDS0=    0 NMtDT0=    0
 Petite list used in FoFCou.
 Closed shell SCF:
 Using DIIS extrapolation, IDIIS=  1040.
 NGot=   754974720 LenX=   754939916 LenY=   754938514
 Requested convergence on RMS density matrix=1.00D-08 within 200 cycles.
 Requested convergence on MAX density matrix=1.00D-06.
 Requested convergence on             energy=1.00D-06.
 No special actions if energy rises.
 Integral accuracy reduced to 1.0D-05 until final iterations.

 Cycle   1  Pass 0  IDiag  1:
 E= -76.4070666189097    
 DIIS: error= 8.16D-02 at cycle   1 NSaved=   1.
 NSaved= 1 IEnMin= 1 EnMin= -76.4070666189097     IErMin= 1 ErrMin= 8.16D-02
 ErrMax= 8.16D-02  0.00D+00 EMaxC= 1.00D-01 BMatC= 1.32D-01 BMatP= 1.32D-01
 IDIUse=3 WtCom= 1.84D-01 WtEn= 8.16D-01
 Coeff-Com:  0.100D+01
 Coeff-En:   0.100D+01
 Coeff:      0.100D+01
 Gap=     0.486 Goal=   None    Shift=    0.000
 GapD=    0.486 DampG=2.000 DampE=0.500 DampFc=1.0000 IDamp=-1.
 RMSDP=2.93D-03 MaxDP=2.98D-02              OVMax= 3.54D-02

 Cycle   2  Pass 0  IDiag  1:
 E= -76.4179753337733     Delta-E=       -0.010908714864 Rises=F Damp=F
 DIIS: error= 4.92D-03 at cycle   2 NSaved=   2.
 NSaved= 2 IEnMin= 2 EnMin= -76.4179753337733     IErMin= 2 ErrMin= 4.92D-03
 ErrMax= 4.92D-03  0.00D+00 EMaxC= 1.00D-01 BMatC= 7.65D-04 BMatP= 1.32D-01
 IDIUse=3 WtCom= 9.51D-01 WtEn= 4.92D-02
 Coeff-Com:  0.525D-01 0.947D+00
 Coeff-En:   0.000D+00 0.100D+01
 Coeff:      0.500D-01 0.950D+00
 Gap=     0.487 Goal=   None    Shift=    0.000
 RMSDP=3.44D-04 MaxDP=3.31D-03 DE=-1.09D-02 OVMax= 6.47D-03

 Cycle   3  Pass 0  IDiag  1:
 E= -76.4182032054038     Delta-E=       -0.000227871631 Rises=F Damp=F
 DIIS: error= 2.42D-03 at cycle   3 NSaved=   3.
 NSaved= 3 IEnMin= 3 EnMin= -76.4182032054038     IErMin= 3 ErrMin= 2.42D-03
 ErrMax= 2.42D-03  0.00D+00 EMaxC= 1.00D-01 BMatC= 1.20D-04 BMatP= 7.65D-04
 IDIUse=3 WtCom= 9.76D-01 WtEn= 2.42D-02
 Coeff-Com:  0.124D-01 0.318D+00 0.669D+00
 Coeff-En:   0.000D+00 0.000D+00 0.100D+01
 Coeff:      0.121D-01 0.310D+00 0.678D+00
 Gap=     0.492 Goal=   None    Shift=    0.000
 RMSDP=2.11D-04 MaxDP=2.92D-03 DE=-2.28D-04 OVMax= 2.87D-03

 Cycle   4  Pass 0  IDiag  1:
 E= -76.4182639683320     Delta-E=       -0.000060762928 Rises=F Damp=F
 DIIS: error= 9.67D-04 at cycle   4 NSaved=   4.
 NSaved= 4 IEnMin= 4 EnMin= -76.4182639683320     IErMin= 4 ErrMin= 9.67D-04
 ErrMax= 9.67D-04  0.00D+00 EMaxC= 1.00D-01 BMatC= 1.82D-05 BMatP= 1.20D-04
 IDIUse=3 WtCom= 9.90D-01 WtEn= 9.67D-03
 Coeff-Com:  0.196D-02 0.532D-01 0.299D+00 0.646D+00
 Coeff-En:   0.000D+00 0.000D+00 0.519D-01 0.948D+00
 Coeff:      0.194D-02 0.526D-01 0.297D+00 0.649D+00
 Gap=     0.490 Goal=   None    Shift=    0.000
 RMSDP=7.73D-05 MaxDP=9.77D-04 DE=-6.08D-05 OVMax= 1.16D-03

 Cycle   5  Pass 0  IDiag  1:
 E= -76.4182759301405     Delta-E=       -0.000011961809 Rises=F Damp=F
 DIIS: error= 1.07D-04 at cycle   5 NSaved=   5.
 NSaved= 5 IEnMin= 5 EnMin= -76.4182759301405     IErMin= 5 ErrMin= 1.07D-04
 ErrMax= 1.07D-04  0.00D+00 EMaxC= 1.00D-01 BMatC= 1.91D-07 BMatP= 1.82D-05
 IDIUse=3 WtCom= 9.99D-01 WtEn= 1.07D-03
 Coeff-Com: -0.754D-03-0.193D-01-0.450D-01 0.185D-01 0.105D+01
 Coeff-En:   0.000D+00 0.000D+00 0.000D+00 0.000D+00 0.100D+01
 Coeff:     -0.753D-03-0.193D-01-0.450D-01 0.185D-01 0.105D+01
 Gap=     0.490 Goal=   None    Shift=    0.000
 RMSDP=1.73D-05 MaxDP=1.40D-04 DE=-1.20D-05 OVMax= 2.46D-04

 Cycle   6  Pass 0  IDiag  1:
 E= -76.4182761426215     Delta-E=       -0.000000212481 Rises=F Damp=F
 DIIS: error= 1.27D-05 at cycle   6 NSaved=   6.
 NSaved= 6 IEnMin= 6 EnMin= -76.4182761426215     IErMin= 6 ErrMin= 1.27D-05
 ErrMax= 1.27D-05  0.00D+00 EMaxC= 1.00D-01 BMatC= 3.37D-09 BMatP= 1.91D-07
 IDIUse=1 WtCom= 1.00D+00 WtEn= 0.00D+00
 Coeff-Com:  0.132D-03 0.294D-02 0.349D-02-0.355D-02-0.224D+00 0.122D+01
 Coeff:      0.132D-03 0.294D-02 0.349D-02-0.355D-02-0.224D+00 0.122D+01
 Gap=     0.490 Goal=   None    Shift=    0.000
 RMSDP=4.03D-06 MaxDP=4.49D-05 DE=-2.12D-07 OVMax= 6.77D-05

 Initial convergence to 1.0D-05 achieved.  Increase integral accuracy.
 Cycle   7  Pass 1  IDiag  1:
 E= -76.4182864126189     Delta-E=       -0.000010269997 Rises=F Damp=F
 DIIS: error= 1.03D-05 at cycle   1 NSaved=   1.
 NSaved= 1 IEnMin= 1 EnMin= -76.4182864126189     IErMin= 1 ErrMin= 1.03D-05
 ErrMax= 1.03D-05  0.00D+00 EMaxC= 1.00D-01 BMatC= 1.55D-09 BMatP= 1.55D-09
 IDIUse=1 WtCom= 1.00D+00 WtEn= 0.00D+00
 Coeff-Com:  0.100D+01
 Coeff:      0.100D+01
 Gap=     0.490 Goal=   None    Shift=    0.000
 RMSDP=4.03D-06 MaxDP=4.49D-05 DE=-1.03D-05 OVMax= 1.30D-05

 Cycle   8  Pass 1  IDiag  1:
 E= -76.4182864139952     Delta-E=       -0.000000001376 Rises=F Damp=F
 DIIS: error= 1.18D-06 at cycle   2 NSaved=   2.
 NSaved= 2 IEnMin= 2 EnMin= -76.4182864139952     IErMin= 2 ErrMin= 1.18D-06
 ErrMax= 1.18D-06  0.00D+00 EMaxC= 1.00D-01 BMatC= 2.87D-11 BMatP= 1.55D-09
 IDIUse=1 WtCom= 1.00D+00 WtEn= 0.00D+00
 Coeff-Com: -0.995D-01 0.110D+01
 Coeff:     -0.995D-01 0.110D+01
 Gap=     0.490 Goal=   None    Shift=    0.000
 RMSDP=2.88D-07 MaxDP=2.23D-06 DE=-1.38D-09 OVMax= 3.80D-06

 Cycle   9  Pass 1  IDiag  1:
 E= -76.4182864140371     Delta-E=       -0.000000000042 Rises=F Damp=F
 DIIS: error= 4.80D-07 at cycle   3 NSaved=   3.
 NSaved= 3 IEnMin= 3 EnMin= -76.4182864140371     IErMin= 3 ErrMin= 4.80D-07
 ErrMax= 4.80D-07  0.00D+00 EMaxC= 1.00D-01 BMatC= 7.11D-12 BMatP= 2.87D-11
 IDIUse=1 WtCom= 1.00D+00 WtEn= 0.00D+00
 Coeff-Com: -0.439D-01 0.405D+00 0.639D+00
 Coeff:     -0.439D-01 0.405D+00 0.639D+00
 Gap=     0.490 Goal=   None    Shift=    0.000
 RMSDP=7.16D-08 MaxDP=1.01D-06 DE=-4.19D-11 OVMax= 1.31D-06

 Cycle  10  Pass 1  IDiag  1:
 E= -76.4182864140427     Delta-E=       -0.000000000006 Rises=F Damp=F
 DIIS: error= 2.67D-07 at cycle   4 NSaved=   4.
 NSaved= 4 IEnMin= 4 EnMin= -76.4182864140427     IErMin= 4 ErrMin= 2.67D-07
 ErrMax= 2.67D-07  0.00D+00 EMaxC= 1.00D-01 BMatC= 1.07D-12 BMatP= 7.11D-12
 IDIUse=1 WtCom= 1.00D+00 WtEn= 0.00D+00
 Coeff-Com:  0.154D-02-0.556D-01 0.227D+00 0.827D+00
 Coeff:      0.154D-02-0.556D-01 0.227D+00 0.827D+00
 Gap=     0.490 Goal=   None    Shift=    0.000
 RMSDP=3.40D-08 MaxDP=2.79D-07 DE=-5.66D-12 OVMax= 6.18D-07

 Cycle  11  Pass 1  IDiag  1:
 E= -76.4182864140440     Delta-E=       -0.000000000001 Rises=F Damp=F
 DIIS: error= 3.15D-08 at cycle   5 NSaved=   5.
 NSaved= 5 IEnMin= 5 EnMin= -76.4182864140440     IErMin= 5 ErrMin= 3.15D-08
 ErrMax= 3.15D-08  0.00D+00 EMaxC= 1.00D-01 BMatC= 2.92D-14 BMatP= 1.07D-12
 IDIUse=1 WtCom= 1.00D+00 WtEn= 0.00D+00
 Coeff-Com:  0.516D-02-0.475D-01-0.440D-01-0.807D-02 0.109D+01
 Coeff:      0.516D-02-0.475D-01-0.440D-01-0.807D-02 0.109D+01
 Gap=     0.490 Goal=   None    Shift=    0.000
 RMSDP=1.57D-08 MaxDP=1.60D-07 DE=-1.22D-12 OVMax= 3.35D-07

 Cycle  12  Pass 1  IDiag  1:
 E= -76.4182864140441     Delta-E=       -0.000000000000 Rises=F Damp=F
 DIIS: error= 5.27D-09 at cycle   6 NSaved=   6.
 NSaved= 6 IEnMin= 6 EnMin= -76.4182864140441     IErMin= 6 ErrMin= 5.27D-09
 ErrMax= 5.27D-09  0.00D+00 EMaxC= 1.00D-01 BMatC= 6.86D-16 BMatP= 2.92D-14
 IDIUse=1 WtCom= 1.00D+00 WtEn= 0.00D+00
 Coeff-Com: -0.360D-04 0.175D-02-0.206D-02-0.293D-01-0.508D-01 0.108D+01
 Coeff:     -0.360D-04 0.175D-02-0.206D-02-0.293D-01-0.508D-01 0.108D+01
 Gap=     0.490 Goal=   None    Shift=    0.000
 RMSDP=1.99D-09 MaxDP=1.67D-08 DE=-1.42D-13 OVMax= 4.03D-08

 SCF Done:  E(RwB97XD) =  -76.4182864140     A.U. after   12 cycles
            NFock= 12  Conv=0.20D-08     -V/T= 2.0038
 KE= 7.612916696312D+01 PE=-1.985206411950D+02 EE= 3.725453409068D+01
 Leave Link  502 at Wed Feb  8 14:43:04 2023, MaxMem=   754974720 cpu:               7.7 elap:               3.9
 (Enter /opt/cluster/programs/g16-c.01/g16/l601.exe)
 Copying SCF densities to generalized density rwf, IOpCl= 0 IROHF=0.

 **********************************************************************

            Population analysis using the SCF Density.

 **********************************************************************

 Orbital symmetries:
       Occupied  (A1) (A1) (B2) (A1) (B1)
       Virtual   (A1) (B2) (B2) (A1) (A1) (B1) (B2) (A1) (A2) (A1)
                 (B1) (B2) (B2) (A1) (A1) (B2) (B1) (A2) (A1) (A1)
                 (B2) (B1) (A1) (B2) (A1)
 The electronic state is 1-A1.
 Alpha  occ. eigenvalues --  -19.23289  -1.08076  -0.59458  -0.45468  -0.38194
 Alpha virt. eigenvalues --    0.10826   0.18109   0.44612   0.47468   0.85363
 Alpha virt. eigenvalues --    0.85575   0.94425   1.15984   1.33644   1.38317
 Alpha virt. eigenvalues --    1.54852   1.68785   1.96545   2.08255   2.39339
 Alpha virt. eigenvalues --    2.56536   3.15169   3.20769   3.34063   3.66884
 Alpha virt. eigenvalues --    3.85716   4.87585   5.22880   5.59780  49.93220
          Condensed to atoms (all electrons):
               1          2          3
     1  O    7.891106   0.305543   0.305543
     2  H    0.305543   0.472825  -0.029465
     3  H    0.305543  -0.029465   0.472825
 Mulliken charges:
               1
     1  O   -0.502193
     2  H    0.251097
     3  H    0.251097
 Sum of Mulliken charges =   0.00000
 Mulliken charges with hydrogens summed into heavy atoms:
               1
     1  O    0.000000
 Electronic spatial extent (au):  <R**2>=             19.7006
 Charge=              0.0000 electrons
 Dipole moment (field-independent basis, Debye):
    X=             -0.0000    Y=             -0.0000    Z=             -2.0922  Tot=              2.0922
 Quadrupole moment (field-independent basis, Debye-Ang):
   XX=             -7.2825   YY=             -4.0318   ZZ=             -6.1047
   XY=              0.0000   XZ=              0.0000   YZ=              0.0000
 Traceless Quadrupole moment (field-independent basis, Debye-Ang):
   XX=             -1.4762   YY=              1.7745   ZZ=             -0.2984
   XY=              0.0000   XZ=              0.0000   YZ=              0.0000
 Octapole moment (field-independent basis, Debye-Ang**2):
  XXX=              0.0000  YYY=             -0.0000  ZZZ=             -1.1654  XYY=             -0.0000
  XXY=              0.0000  XXZ=             -0.2922  XZZ=              0.0000  YZZ=             -0.0000
  YYZ=             -1.4117  XYZ=             -0.0000
 Hexadecapole moment (field-independent basis, Debye-Ang**3):
 XXXX=             -5.3861 YYYY=             -6.1589 ZZZZ=             -6.5615 XXXY=             -0.0000
 XXXZ=             -0.0000 YYYX=             -0.0000 YYYZ=              0.0000 ZZZX=             -0.0000
 ZZZY=              0.0000 XXYY=             -2.2849 XXZZ=             -2.0503 YYZZ=             -1.7476
 XXYZ=             -0.0000 YYXZ=              0.0000 ZZXY=             -0.0000
 N-N= 8.718653727114D+00 E-N=-1.985206412801D+02  KE= 7.612916696312D+01
 Symmetry A1   KE= 6.798195547772D+01
 Symmetry A2   KE= 2.944608516217D-35
 Symmetry B1   KE= 4.644829140847D+00
 Symmetry B2   KE= 3.502382344550D+00
 No NMR shielding tensors so no spin-rotation constants.
 Leave Link  601 at Wed Feb  8 14:43:04 2023, MaxMem=   754974720 cpu:               1.1 elap:               0.5
 (Enter /opt/cluster/programs/g16-c.01/g16/l9999.exe)
 Unable to Open any file for archive entry.
 1\1\GINC-NODE62\SP\RwB97XD\6-311G(d,p)\H2O1\BOITTIER\08-Feb-2023\0\\#P
  wB97XD/6-311g** scf(maxcycle=200)\\Gaussian input\\0,1\O,0,0.,0.11751
 ,0.\H,0,0.7973622306,-0.5007896629,0.\H,0,-0.8187867861,-0.4721248014,
 0.\\Version=ES64L-G16RevC.01\State=1-A1\HF=-76.4182864\RMSD=1.988e-09\
 Dipole=-0.0145976,-0.8230241,0.\Quadrupole=1.3188411,-0.2213509,-1.097
 4902,-0.0273262,0.,0.\PG=C02V [C2(O1),SGV(H2)]\\@
 The archive entry for this job was punched.


 THE RED LIGHT IS ALWAYS LONGER THAN THE GREEN LIGHT.

                     -- PETER'S THEORY OF RELATIVITY
 Job cpu time:       0 days  0 hours  0 minutes 12.4 seconds.
 Elapsed time:       0 days  0 hours  0 minutes  5.8 seconds.
 File lengths (MBytes):  RWF=      6 Int=      0 D2E=      0 Chk=      1 Scr=      1
 Normal termination of Gaussian 16 at Wed Feb  8 14:43:04 2023.
