 Entering Gaussian System, Link 0=/opt/cluster/programs/g16-c.01/g16/g16
 Input=/scratch/boittier/jobs/tmp.7261699/gaussian_35_water_ccsdt_atz.com
 Output=/scratch/boittier/jobs/tmp.7261699/gaussian_35_water_ccsdt_atz.out
 Initial command:
 /opt/cluster/programs/g16-c.01/g16/l1.exe "/scratch/boittier/jobs/tmp.7261699/Gau-136040.inp" -scrdir="/scratch/boittier/jobs/tmp.7261699/"
 Entering Link 1 = /opt/cluster/programs/g16-c.01/g16/l1.exe PID=    136041.
  
 Copyright (c) 1988-2019, Gaussian, Inc.  All Rights Reserved.
  
 This is part of the Gaussian(R) 16 program.  It is based on
 the Gaussian(R) 09 system (copyright 2009, Gaussian, Inc.),
 the Gaussian(R) 03 system (copyright 2003, Gaussian, Inc.),
 the Gaussian(R) 98 system (copyright 1998, Gaussian, Inc.),
 the Gaussian(R) 94 system (copyright 1995, Gaussian, Inc.),
 the Gaussian 92(TM) system (copyright 1992, Gaussian, Inc.),
 the Gaussian 90(TM) system (copyright 1990, Gaussian, Inc.),
 the Gaussian 88(TM) system (copyright 1988, Gaussian, Inc.),
 the Gaussian 86(TM) system (copyright 1986, Carnegie Mellon
 University), and the Gaussian 82(TM) system (copyright 1983,
 Carnegie Mellon University). Gaussian is a federally registered
 trademark of Gaussian, Inc.
  
 This software contains proprietary and confidential information,
 including trade secrets, belonging to Gaussian, Inc.
  
 This software is provided under written license and may be
 used, copied, transmitted, or stored only in accord with that
 written license.
  
 The following legend is applicable only to US Government
 contracts under FAR:
  
                    RESTRICTED RIGHTS LEGEND
  
 Use, reproduction and disclosure by the US Government is
 subject to restrictions as set forth in subparagraphs (a)
 and (c) of the Commercial Computer Software - Restricted
 Rights clause in FAR 52.227-19.
  
 Gaussian, Inc.
 340 Quinnipiac St., Bldg. 40, Wallingford CT 06492
  
  
 ---------------------------------------------------------------
 Warning -- This program may not be used in any manner that
 competes with the business of Gaussian, Inc. or will provide
 assistance to any competitor of Gaussian, Inc.  The licensee
 of this program is prohibited from giving any competitor of
 Gaussian, Inc. access to this program.  By using this program,
 the user acknowledges that Gaussian, Inc. is engaged in the
 business of creating and licensing software in the field of
 computational chemistry and represents and warrants to the
 licensee that it is not a competitor of Gaussian, Inc. and that
 it will not use this program in any manner prohibited above.
 ---------------------------------------------------------------
  

 Cite this work as:
 Gaussian 16, Revision C.01,
 M. J. Frisch, G. W. Trucks, H. B. Schlegel, G. E. Scuseria, 
 M. A. Robb, J. R. Cheeseman, G. Scalmani, V. Barone, 
 G. A. Petersson, H. Nakatsuji, X. Li, M. Caricato, A. V. Marenich, 
 J. Bloino, B. G. Janesko, R. Gomperts, B. Mennucci, H. P. Hratchian, 
 J. V. Ortiz, A. F. Izmaylov, J. L. Sonnenberg, D. Williams-Young, 
 F. Ding, F. Lipparini, F. Egidi, J. Goings, B. Peng, A. Petrone, 
 T. Henderson, D. Ranasinghe, V. G. Zakrzewski, J. Gao, N. Rega, 
 G. Zheng, W. Liang, M. Hada, M. Ehara, K. Toyota, R. Fukuda, 
 J. Hasegawa, M. Ishida, T. Nakajima, Y. Honda, O. Kitao, H. Nakai, 
 T. Vreven, K. Throssell, J. A. Montgomery, Jr., J. E. Peralta, 
 F. Ogliaro, M. J. Bearpark, J. J. Heyd, E. N. Brothers, K. N. Kudin, 
 V. N. Staroverov, T. A. Keith, R. Kobayashi, J. Normand, 
 K. Raghavachari, A. P. Rendell, J. C. Burant, S. S. Iyengar, 
 J. Tomasi, M. Cossi, J. M. Millam, M. Klene, C. Adamo, R. Cammi, 
 J. W. Ochterski, R. L. Martin, K. Morokuma, O. Farkas, 
 J. B. Foresman, and D. J. Fox, Gaussian, Inc., Wallingford CT, 2019.
 
 ******************************************
 Gaussian 16:  ES64L-G16RevC.01  3-Jul-2019
                 8-Feb-2023 
 ******************************************
 %nproc=4
 Will use up to    4 processors via shared memory.
 %mem=5760MB
 %chk=gaussian_35_water_ccsdt_atz.chk
 ----------------------------------------
 #P CCSD(T)/aug-cc-pVTZ scf(maxcycle=200)
 ----------------------------------------
 1/38=1,172=1/1;
 2/12=2,17=6,18=5,40=1/2;
 3/5=16,6=1,7=10,11=9,25=1,30=1/1,2,3;
 4//1;
 5/5=2,7=200,38=5/2;
 8/6=4,9=120000,10=1/1,4;
 9/5=7,14=2/13;
 6/7=2,8=2,9=2,10=2/1;
 99/5=1,9=1/99;
 Leave Link    1 at Wed Feb  8 13:49:24 2023, MaxMem=   754974720 cpu:               0.2 elap:               0.1
 (Enter /opt/cluster/programs/g16-c.01/g16/l101.exe)
 --------------
 Gaussian input
 --------------
 Symbolic Z-matrix:
 Charge =  0 Multiplicity = 1
 O                     0.        0.11751   0. 
 H                     0.71834  -0.43951   0. 
 H                    -0.84863  -0.32915   0. 
 
 ITRead=  0  0  0
 MicOpt= -1 -1 -1
 NAtoms=      3 NQM=        3 NQMF=       0 NMMI=      0 NMMIF=      0
                NMic=       0 NMicF=      0.
                    Isotopes and Nuclear Properties:
 (Nuclear quadrupole moments (NQMom) in fm**2, nuclear magnetic moments (NMagM)
  in nuclear magnetons)

  Atom         1           2           3
 IAtWgt=          16           1           1
 AtmWgt=  15.9949146   1.0078250   1.0078250
 NucSpn=           0           1           1
 AtZEff=  -0.0000000  -0.0000000  -0.0000000
 NQMom=    0.0000000   0.0000000   0.0000000
 NMagM=    0.0000000   2.7928460   2.7928460
 AtZNuc=   8.0000000   1.0000000   1.0000000
 Leave Link  101 at Wed Feb  8 13:49:24 2023, MaxMem=   754974720 cpu:               1.0 elap:               0.3
 (Enter /opt/cluster/programs/g16-c.01/g16/l202.exe)
                          Input orientation:                          
 ---------------------------------------------------------------------
 Center     Atomic      Atomic             Coordinates (Angstroms)
 Number     Number       Type             X           Y           Z
 ---------------------------------------------------------------------
      1          8           0        0.000000    0.117510    0.000000
      2          1           0        0.718337   -0.439511    0.000000
      3          1           0       -0.848634   -0.329146    0.000000
 ---------------------------------------------------------------------
                    Distance matrix (angstroms):
                    1          2          3
     1  O    0.000000
     2  H    0.909000   0.000000
     3  H    0.959000   1.570853   0.000000
 Stoichiometry    H2O
 Framework group  CS[SG(H2O)]
 Deg. of freedom     3
 Full point group                 CS      NOp   2
 Largest Abelian subgroup         CS      NOp   2
 Largest concise Abelian subgroup C1      NOp   1
                         Standard orientation:                         
 ---------------------------------------------------------------------
 Center     Atomic      Atomic             Coordinates (Angstroms)
 Number     Number       Type             X           Y           Z
 ---------------------------------------------------------------------
      1          8           0        0.000000    0.101210    0.000000
      2          1           0        0.784070   -0.358698    0.000000
      3          1           0       -0.784070   -0.450981    0.000000
 ---------------------------------------------------------------------
 Rotational constants (GHZ):        1108.4964819         405.6200032         296.9575663
 Leave Link  202 at Wed Feb  8 13:49:24 2023, MaxMem=   754974720 cpu:               0.2 elap:               0.1
 (Enter /opt/cluster/programs/g16-c.01/g16/l301.exe)
 Standard basis: Aug-CC-pVTZ (5D, 7F)
 Ernie: Thresh=  0.10000D-02 Tol=  0.10000D-05 Strict=F.
 Ernie:  3 primitive shells out of 52 were deleted.
 There are    73 symmetry adapted cartesian basis functions of A'  symmetry.
 There are    32 symmetry adapted cartesian basis functions of A"  symmetry.
 There are    62 symmetry adapted basis functions of A'  symmetry.
 There are    30 symmetry adapted basis functions of A"  symmetry.
    92 basis functions,   126 primitive gaussians,   105 cartesian basis functions
     5 alpha electrons        5 beta electrons
       nuclear repulsion energy         9.4085061318 Hartrees.
 IExCor=    0 DFT=F Ex=HF Corr=None ExCW=0 ScaHFX=  1.000000
 ScaDFX=  1.000000  1.000000  1.000000  1.000000 ScalE2=  1.000000  1.000000
 IRadAn=      5 IRanWt=     -1 IRanGd=            0 ICorTp=0 IEmpDi=  4
 NAtoms=    3 NActive=    3 NUniq=    3 SFac= 1.00D+00 NAtFMM=   60 NAOKFM=F Big=F
 Integral buffers will be    131072 words long.
 Raffenetti 1 integral format.
 Two-electron integral symmetry is turned on.
 Leave Link  301 at Wed Feb  8 13:49:24 2023, MaxMem=   754974720 cpu:               0.1 elap:               0.0
 (Enter /opt/cluster/programs/g16-c.01/g16/l302.exe)
 NPDir=0 NMtPBC=     1 NCelOv=     1 NCel=       1 NClECP=     1 NCelD=      1
         NCelK=      1 NCelE2=     1 NClLst=     1 CellRange=     0.0.
 One-electron integrals computed using PRISM.
 One-electron integral symmetry used in STVInt
 NBasis=    92 RedAO= T EigKep=  3.26D-04  NBF=    62    30
 NBsUse=    92 1.00D-06 EigRej= -1.00D+00 NBFU=    62    30
 Leave Link  302 at Wed Feb  8 13:49:24 2023, MaxMem=   754974720 cpu:               0.4 elap:               0.1
 (Enter /opt/cluster/programs/g16-c.01/g16/l303.exe)
 DipDrv:  MaxL=1.
 Leave Link  303 at Wed Feb  8 13:49:25 2023, MaxMem=   754974720 cpu:               0.5 elap:               0.2
 (Enter /opt/cluster/programs/g16-c.01/g16/l401.exe)
 ExpMin= 2.53D-02 ExpMax= 1.53D+04 ExpMxC= 5.22D+02 IAcc=3 IRadAn=         5 AccDes= 0.00D+00
 Harris functional with IExCor=  205 and IRadAn=       5 diagonalized for initial guess.
 HarFok:  IExCor=  205 AccDes= 0.00D+00 IRadAn=         5 IDoV= 1 UseB2=F ITyADJ=14
 ICtDFT=  3500011 ScaDFX=  1.000000  1.000000  1.000000  1.000000
 FoFCou: FMM=F IPFlag=           0 FMFlag=      100000 FMFlg1=           0
         NFxFlg=           0 DoJE=T BraDBF=F KetDBF=T FulRan=T
         wScrn=  0.000000 ICntrl=       500 IOpCl=  0 I1Cent=   200000004 NGrid=           0
         NMat0=    1 NMatS0=      1 NMatT0=    0 NMatD0=    1 NMtDS0=    0 NMtDT0=    0
 Petite list used in FoFCou.
 Harris En= -76.1531280088577    
 JPrj=0 DoOrth=F DoCkMO=F.
 Initial guess orbital symmetries:
       Occupied  (A') (A') (A') (A') (A")
       Virtual   (A') (A') (A') (A") (A') (A') (A') (A') (A") (A')
                 (A") (A') (A') (A') (A') (A') (A') (A") (A") (A')
                 (A') (A") (A") (A') (A") (A') (A') (A') (A') (A")
                 (A') (A') (A") (A') (A") (A') (A") (A') (A') (A')
                 (A') (A") (A") (A') (A') (A") (A') (A') (A") (A')
                 (A') (A") (A') (A') (A') (A") (A") (A') (A') (A")
                 (A") (A") (A') (A') (A') (A') (A') (A") (A') (A')
                 (A") (A') (A') (A') (A") (A') (A") (A') (A") (A")
                 (A") (A') (A') (A') (A') (A') (A')
 The electronic state of the initial guess is 1-A'.
 Leave Link  401 at Wed Feb  8 13:49:25 2023, MaxMem=   754974720 cpu:               0.7 elap:               0.2
 (Enter /opt/cluster/programs/g16-c.01/g16/l502.exe)
 Keep R1 ints in memory in symmetry-blocked form, NReq=13818732.
 FoFCou: FMM=F IPFlag=           0 FMFlag=           0 FMFlg1=           0
         NFxFlg=           0 DoJE=F BraDBF=F KetDBF=F FulRan=T
         wScrn=  0.000000 ICntrl=       600 IOpCl=  0 I1Cent=           0 NGrid=           0
         NMat0=    1 NMatS0=   4278 NMatT0=    0 NMatD0=    1 NMtDS0=    0 NMtDT0=    0
 Petite list used in FoFCou.
 Closed shell SCF:
 Using DIIS extrapolation, IDIIS=  1040.
 NGot=   754974720 LenX=   750285684 LenY=   750274218
 Requested convergence on RMS density matrix=1.00D-08 within 200 cycles.
 Requested convergence on MAX density matrix=1.00D-06.
 Requested convergence on             energy=1.00D-06.
 No special actions if energy rises.

 Cycle   1  Pass 1  IDiag  1:
 E= -75.9639260034491    
 DIIS: error= 5.31D-02 at cycle   1 NSaved=   1.
 NSaved= 1 IEnMin= 1 EnMin= -75.9639260034491     IErMin= 1 ErrMin= 5.31D-02
 ErrMax= 5.31D-02  0.00D+00 EMaxC= 1.00D-01 BMatC= 2.14D-01 BMatP= 2.14D-01
 IDIUse=3 WtCom= 4.69D-01 WtEn= 5.31D-01
 Coeff-Com:  0.100D+01
 Coeff-En:   0.100D+01
 Coeff:      0.100D+01
 Gap=     0.448 Goal=   None    Shift=    0.000
 GapD=    0.448 DampG=2.000 DampE=0.500 DampFc=1.0000 IDamp=-1.
 RMSDP=2.22D-03 MaxDP=5.08D-02              OVMax= 1.26D-01

 Cycle   2  Pass 1  IDiag  1:
 E= -76.0207761041662     Delta-E=       -0.056850100717 Rises=F Damp=F
 DIIS: error= 3.24D-02 at cycle   2 NSaved=   2.
 NSaved= 2 IEnMin= 2 EnMin= -76.0207761041662     IErMin= 2 ErrMin= 3.24D-02
 ErrMax= 3.24D-02  0.00D+00 EMaxC= 1.00D-01 BMatC= 6.10D-02 BMatP= 2.14D-01
 IDIUse=3 WtCom= 6.76D-01 WtEn= 3.24D-01
 Coeff-Com:  0.321D+00 0.679D+00
 Coeff-En:   0.184D+00 0.816D+00
 Coeff:      0.277D+00 0.723D+00
 Gap=     0.566 Goal=   None    Shift=    0.000
 RMSDP=1.28D-03 MaxDP=3.14D-02 DE=-5.69D-02 OVMax= 6.48D-02

 Cycle   3  Pass 1  IDiag  1:
 E= -76.0564479336724     Delta-E=       -0.035671829506 Rises=F Damp=F
 DIIS: error= 7.34D-03 at cycle   3 NSaved=   3.
 NSaved= 3 IEnMin= 3 EnMin= -76.0564479336724     IErMin= 3 ErrMin= 7.34D-03
 ErrMax= 7.34D-03  0.00D+00 EMaxC= 1.00D-01 BMatC= 2.59D-03 BMatP= 6.10D-02
 IDIUse=3 WtCom= 9.27D-01 WtEn= 7.34D-02
 Coeff-Com: -0.297D-01 0.139D+00 0.891D+00
 Coeff-En:   0.000D+00 0.000D+00 0.100D+01
 Coeff:     -0.275D-01 0.129D+00 0.899D+00
 Gap=     0.538 Goal=   None    Shift=    0.000
 RMSDP=2.02D-04 MaxDP=3.99D-03 DE=-3.57D-02 OVMax= 1.13D-02

 Cycle   4  Pass 1  IDiag  1:
 E= -76.0580343852796     Delta-E=       -0.001586451607 Rises=F Damp=F
 DIIS: error= 5.06D-04 at cycle   4 NSaved=   4.
 NSaved= 4 IEnMin= 4 EnMin= -76.0580343852796     IErMin= 4 ErrMin= 5.06D-04
 ErrMax= 5.06D-04  0.00D+00 EMaxC= 1.00D-01 BMatC= 1.07D-05 BMatP= 2.59D-03
 IDIUse=3 WtCom= 9.95D-01 WtEn= 5.06D-03
 Coeff-Com:  0.654D-02-0.494D-01-0.244D+00 0.129D+01
 Coeff-En:   0.000D+00 0.000D+00 0.000D+00 0.100D+01
 Coeff:      0.651D-02-0.491D-01-0.243D+00 0.129D+01
 Gap=     0.539 Goal=   None    Shift=    0.000
 RMSDP=3.52D-05 MaxDP=6.51D-04 DE=-1.59D-03 OVMax= 2.28D-03

 Cycle   5  Pass 1  IDiag  1:
 E= -76.0580539746294     Delta-E=       -0.000019589350 Rises=F Damp=F
 DIIS: error= 1.43D-04 at cycle   5 NSaved=   5.
 NSaved= 5 IEnMin= 5 EnMin= -76.0580539746294     IErMin= 5 ErrMin= 1.43D-04
 ErrMax= 1.43D-04  0.00D+00 EMaxC= 1.00D-01 BMatC= 5.62D-07 BMatP= 1.07D-05
 IDIUse=3 WtCom= 9.99D-01 WtEn= 1.43D-03
 Coeff-Com:  0.237D-03 0.193D-02 0.755D-02-0.282D+00 0.127D+01
 Coeff-En:   0.000D+00 0.000D+00 0.000D+00 0.000D+00 0.100D+01
 Coeff:      0.236D-03 0.193D-02 0.754D-02-0.281D+00 0.127D+01
 Gap=     0.540 Goal=   None    Shift=    0.000
 RMSDP=1.06D-05 MaxDP=2.07D-04 DE=-1.96D-05 OVMax= 7.39D-04

 Cycle   6  Pass 1  IDiag  1:
 E= -76.0580553955186     Delta-E=       -0.000001420889 Rises=F Damp=F
 DIIS: error= 2.02D-05 at cycle   6 NSaved=   6.
 NSaved= 6 IEnMin= 6 EnMin= -76.0580553955186     IErMin= 6 ErrMin= 2.02D-05
 ErrMax= 2.02D-05  0.00D+00 EMaxC= 1.00D-01 BMatC= 1.63D-08 BMatP= 5.62D-07
 IDIUse=1 WtCom= 1.00D+00 WtEn= 0.00D+00
 Coeff-Com: -0.246D-03 0.118D-02 0.553D-02 0.150D-01-0.295D+00 0.127D+01
 Coeff:     -0.246D-03 0.118D-02 0.553D-02 0.150D-01-0.295D+00 0.127D+01
 Gap=     0.540 Goal=   None    Shift=    0.000
 RMSDP=2.15D-06 MaxDP=4.95D-05 DE=-1.42D-06 OVMax= 1.57D-04

 Cycle   7  Pass 1  IDiag  1:
 E= -76.0580554462350     Delta-E=       -0.000000050716 Rises=F Damp=F
 DIIS: error= 4.54D-06 at cycle   7 NSaved=   7.
 NSaved= 7 IEnMin= 7 EnMin= -76.0580554462350     IErMin= 7 ErrMin= 4.54D-06
 ErrMax= 4.54D-06  0.00D+00 EMaxC= 1.00D-01 BMatC= 8.54D-10 BMatP= 1.63D-08
 IDIUse=1 WtCom= 1.00D+00 WtEn= 0.00D+00
 Coeff-Com:  0.291D-04-0.323D-03-0.159D-02 0.158D-01-0.253D-01-0.182D+00
 Coeff-Com:  0.119D+01
 Coeff:      0.291D-04-0.323D-03-0.159D-02 0.158D-01-0.253D-01-0.182D+00
 Coeff:      0.119D+01
 Gap=     0.540 Goal=   None    Shift=    0.000
 RMSDP=3.24D-07 MaxDP=7.87D-06 DE=-5.07D-08 OVMax= 2.89D-05

 Cycle   8  Pass 1  IDiag  1:
 E= -76.0580554482265     Delta-E=       -0.000000001992 Rises=F Damp=F
 DIIS: error= 1.10D-06 at cycle   8 NSaved=   8.
 NSaved= 8 IEnMin= 8 EnMin= -76.0580554482265     IErMin= 8 ErrMin= 1.10D-06
 ErrMax= 1.10D-06  0.00D+00 EMaxC= 1.00D-01 BMatC= 4.79D-11 BMatP= 8.54D-10
 IDIUse=1 WtCom= 1.00D+00 WtEn= 0.00D+00
 Coeff-Com:  0.638D-05 0.149D-04 0.142D-03-0.517D-02 0.226D-01-0.168D-01
 Coeff-Com: -0.358D+00 0.136D+01
 Coeff:      0.638D-05 0.149D-04 0.142D-03-0.517D-02 0.226D-01-0.168D-01
 Coeff:     -0.358D+00 0.136D+01
 Gap=     0.540 Goal=   None    Shift=    0.000
 RMSDP=1.03D-07 MaxDP=2.30D-06 DE=-1.99D-09 OVMax= 7.09D-06

 Cycle   9  Pass 1  IDiag  1:
 E= -76.0580554483473     Delta-E=       -0.000000000121 Rises=F Damp=F
 DIIS: error= 1.22D-07 at cycle   9 NSaved=   9.
 NSaved= 9 IEnMin= 9 EnMin= -76.0580554483473     IErMin= 9 ErrMin= 1.22D-07
 ErrMax= 1.22D-07  0.00D+00 EMaxC= 1.00D-01 BMatC= 4.54D-13 BMatP= 4.79D-11
 IDIUse=1 WtCom= 1.00D+00 WtEn= 0.00D+00
 Coeff-Com: -0.127D-05 0.362D-05 0.684D-05 0.374D-03-0.227D-02 0.488D-02
 Coeff-Com:  0.291D-01-0.193D+00 0.116D+01
 Coeff:     -0.127D-05 0.362D-05 0.684D-05 0.374D-03-0.227D-02 0.488D-02
 Coeff:      0.291D-01-0.193D+00 0.116D+01
 Gap=     0.540 Goal=   None    Shift=    0.000
 RMSDP=1.32D-08 MaxDP=3.02D-07 DE=-1.21D-10 OVMax= 5.79D-07

 Cycle  10  Pass 1  IDiag  1:
 E= -76.0580554483485     Delta-E=       -0.000000000001 Rises=F Damp=F
 DIIS: error= 2.64D-08 at cycle  10 NSaved=  10.
 NSaved=10 IEnMin=10 EnMin= -76.0580554483485     IErMin=10 ErrMin= 2.64D-08
 ErrMax= 2.64D-08  0.00D+00 EMaxC= 1.00D-01 BMatC= 1.85D-14 BMatP= 4.54D-13
 IDIUse=1 WtCom= 1.00D+00 WtEn= 0.00D+00
 Coeff-Com: -0.235D-07-0.873D-06-0.466D-05 0.963D-04-0.312D-03-0.177D-03
 Coeff-Com:  0.720D-02-0.185D-01-0.130D+00 0.114D+01
 Coeff:     -0.235D-07-0.873D-06-0.466D-05 0.963D-04-0.312D-03-0.177D-03
 Coeff:      0.720D-02-0.185D-01-0.130D+00 0.114D+01
 Gap=     0.540 Goal=   None    Shift=    0.000
 RMSDP=2.58D-09 MaxDP=5.50D-08 DE=-1.11D-12 OVMax= 8.74D-08

 SCF Done:  E(RHF) =  -76.0580554483     A.U. after   10 cycles
            NFock= 10  Conv=0.26D-08     -V/T= 2.0002
 KE= 7.604180182965D+01 PE=-1.994806594448D+02 EE= 3.797229603500D+01
 Leave Link  502 at Wed Feb  8 13:49:26 2023, MaxMem=   754974720 cpu:               3.7 elap:               1.1
 (Enter /opt/cluster/programs/g16-c.01/g16/l801.exe)
 Windowed orbitals will be sorted by symmetry type.
 ExpMin= 2.53D-02 ExpMax= 1.53D+04 ExpMxC= 5.22D+02 IAcc=3 IRadAn=         5 AccDes= 0.00D+00
 HarFok:  IExCor=  205 AccDes= 0.00D+00 IRadAn=         5 IDoV=-2 UseB2=F ITyADJ=14
 ICtDFT= 12500011 ScaDFX=  1.000000  1.000000  1.000000  1.000000
 Largest valence mixing into a core orbital is  1.09D-04
 Largest core mixing into a valence orbital is  1.65D-05
 Range of M.O.s used for correlation:     2    92
 NBasis=    92 NAE=     5 NBE=     5 NFC=     1 NFV=     0
 NROrb=     91 NOA=     4 NOB=     4 NVA=    87 NVB=    87

 **** Warning!!: The largest alpha MO coefficient is  0.15860100D+02

 Leave Link  801 at Wed Feb  8 13:49:26 2023, MaxMem=   754974720 cpu:               0.6 elap:               0.3
 (Enter /opt/cluster/programs/g16-c.01/g16/l804.exe)
 Closed-shell transformation, MDV=   754974720 ITran=4 ISComp=2.
 Unit  1 TFree=        277501 TCopy=        343607.
 Semi-Direct transformation.
 ModeAB=           2 MOrb=             4 LenV=     754586778
 LASXX=       736380 LTotXX=      736380 LenRXX=      736380
 LTotAB=      763744 MaxLAS=     2025660 LenRXY=     2025660
 NonZer=     2107560 LenScr=     3929600 LnRSAI=           0
 LnScr1=           0 LExtra=           0 Total=      6691640
 MaxDsk=          -1 SrtSym=           F ITran=            4
 DoSDTr:  NPSUse=  4
 JobTyp=0 Pass  1:  I=   1 to   4.
 (rs|ai) integrals will be sorted in core.
 Complete sort for first half transformation.
 First half transformation complete.
 Complete sort for second half transformation.
 Second half transformation complete.
 Spin components of T(2) and E(2):
     alpha-alpha T2 =       0.7900468959D-02 E2=     -0.3231399552D-01
     alpha-beta  T2 =       0.4574143509D-01 E2=     -0.2014312614D+00
     beta-beta   T2 =       0.7900468959D-02 E2=     -0.3231399552D-01
 ANorm=    0.1030311784D+01
 E2 =    -0.2660592524D+00 EUMP2 =    -0.76324114700762D+02
 Leave Link  804 at Wed Feb  8 13:49:30 2023, MaxMem=   754974720 cpu:               8.7 elap:               4.3
 (Enter /opt/cluster/programs/g16-c.01/g16/l913.exe)
 CIDS:  MDV=   754974720.
 Frozen-core window:  NFC=   1 NFV=   0.
 IFCWin=0 IBDFC=1 NFBD=     0     0 NFCmp=     0     0 NFFFC=     0     0
 Using DD3R+UMP44R for 1st iteration.
 Using DD4RQ for 2nd and later iterations.
 Keep R2 and R3 ints in memory in symmetry-blocked form, NReq=13979827.
 FoFCou: FMM=F IPFlag=           0 FMFlag=           0 FMFlg1=           0
         NFxFlg=           0 DoJE=F BraDBF=F KetDBF=F FulRan=T
         wScrn=  0.000000 ICntrl=       600 IOpCl=  0 I1Cent=           0 NGrid=           0
         NMat0=    1 NMatS0=   4278 NMatT0=    0 NMatD0=    1 NMtDS0=    0 NMtDT0=    0
 Petite list used in FoFCou.
 CIDS: In Core Option IDoMem=           1.
 CCSD(T)
 =======
 Iterations=  50 Convergence= 0.100D-06
 Produce multiple copies of IABC intergrals
 Iteration Nr.   1
 **********************
 DD1Dir will call FoFMem   1 times, MxPair=        20
 NAB=    10 NAA=     0 NBB=     0.
 MP4(R+Q)=  0.39378832D-02
 Maximum subspace dimension=  5
 A-vector RMS=  2.7323765D-03 Max=  1.1532442D-02 conv= 1.00D-05.
 RLE energy=       -0.2652687492
 E3=       -0.31842537D-02        EUMP3=      -0.76327298955D+02
 E4(DQ)=   -0.47051730D-03        UMP4(DQ)=   -0.76327769472D+02
 E4(SDQ)=  -0.22107446D-02        UMP4(SDQ)=  -0.76329509699D+02
 VARIATIONAL ENERGIES WITH THE FIRST-ORDER WAVEFUNCTION:
 DE(Corr)= -0.26526640     E(Corr)=     -76.323321848    
 NORM(A)=   0.10302351D+01
 Iteration Nr.   2
 **********************
 DD1Dir will call FoFMem   1 times, MxPair=        20
 NAB=    10 NAA=     0 NBB=     0.
 A-vector RMS=  2.8639517D-04 Max=  2.0674765D-03 conv= 1.00D-05.
 RLE energy=       -0.2706901351
 DE(Corr)= -0.27032399     E(CORR)=     -76.328379440     Delta=-5.06D-03
 NORM(A)=   0.10321701D+01
 Iteration Nr.   3
 **********************
 DD1Dir will call FoFMem   1 times, MxPair=        20
 NAB=    10 NAA=     0 NBB=     0.
 A-vector RMS=  3.7553287D-04 Max=  2.1066333D-03 conv= 1.00D-05.
 RLE energy=       -0.2709685396
 DE(Corr)= -0.27063358     E(CORR)=     -76.328689029     Delta=-3.10D-04
 NORM(A)=   0.10325308D+01
 Iteration Nr.   4
 **********************
 DD1Dir will call FoFMem   1 times, MxPair=        20
 NAB=    10 NAA=     0 NBB=     0.
 A-vector RMS=  5.4958550D-05 Max=  3.5396241D-04 conv= 1.00D-05.
 RLE energy=       -0.2709969481
 DE(Corr)= -0.27097250     E(CORR)=     -76.329027950     Delta=-3.39D-04
 NORM(A)=   0.10326290D+01
 Iteration Nr.   5
 **********************
 DD1Dir will call FoFMem   1 times, MxPair=        20
 NAB=    10 NAA=     0 NBB=     0.
 A-vector RMS=  2.7817683D-05 Max=  1.8105039D-04 conv= 1.00D-05.
 RLE energy=       -0.2710071894
 DE(Corr)= -0.27100268     E(CORR)=     -76.329058127     Delta=-3.02D-05
 NORM(A)=   0.10326486D+01
 Iteration Nr.   6
 **********************
 DD1Dir will call FoFMem   1 times, MxPair=        20
 NAB=    10 NAA=     0 NBB=     0.
 A-vector RMS=  6.3978944D-06 Max=  3.8188325D-05 conv= 1.00D-05.
 RLE energy=       -0.2710041244
 DE(Corr)= -0.27100488     E(CORR)=     -76.329060328     Delta=-2.20D-06
 NORM(A)=   0.10326504D+01
 Iteration Nr.   7
 **********************
 DD1Dir will call FoFMem   1 times, MxPair=        20
 NAB=    10 NAA=     0 NBB=     0.
 A-vector RMS=  2.2302479D-06 Max=  1.0644748D-05 conv= 1.00D-05.
 RLE energy=       -0.2710040468
 DE(Corr)= -0.27100485     E(CORR)=     -76.329060297     Delta= 3.14D-08
 NORM(A)=   0.10326510D+01
 Iteration Nr.   8
 **********************
 DD1Dir will call FoFMem   1 times, MxPair=        20
 NAB=    10 NAA=     0 NBB=     0.
 A-vector RMS=  8.3568935D-07 Max=  4.8551388D-06 conv= 1.00D-05.
 RLE energy=       -0.2710045585
 DE(Corr)= -0.27100465     E(CORR)=     -76.329060094     Delta= 2.03D-07
 NORM(A)=   0.10326513D+01
 Iteration Nr.   9
 **********************
 DD1Dir will call FoFMem   1 times, MxPair=        20
 NAB=    10 NAA=     0 NBB=     0.
 A-vector RMS=  2.1684258D-07 Max=  1.1559972D-06 conv= 1.00D-05.
 RLE energy=       -0.2710046414
 DE(Corr)= -0.27100465     E(CORR)=     -76.329060102     Delta=-8.64D-09
 NORM(A)=   0.10326514D+01
 CI/CC converged in    9 iterations to DelEn=-8.64D-09 Conv= 1.00D-07 ErrA1= 2.17D-07 Conv= 1.00D-05
 Wavefunction amplitudes converged. E(Corr)=     -76.329060102    
 Largest amplitude= 2.06D-02
 IPart=  4 IA=    6   11.23% done.
 IPart=  1 IA=   11   21.79% done.
 IPart=  1 IA=   16   31.68% done.
 IPart=  2 IA=   21   40.90% done.
 IPart=  1 IA=   27   51.08% done.
 IPart=  4 IA=   33   60.30% done.
 IPart=  4 IA=   41   71.10% done.
 IPart=  4 IA=   49   80.19% done.
 IPart=  3 IA=   61   90.62% done.
 Time for triples=        6.37 seconds.
 T4(CCSD)= -0.86582899D-02
 T5(CCSD)=  0.29756353D-03
 CCSD(T)= -0.76337420829D+02
 Discarding MO integrals.
 Leave Link  913 at Wed Feb  8 13:49:56 2023, MaxMem=   754974720 cpu:              60.7 elap:              25.4
 (Enter /opt/cluster/programs/g16-c.01/g16/l601.exe)
 Copying SCF densities to generalized density rwf, IOpCl= 0 IROHF=0.

 **********************************************************************

            Population analysis using the SCF Density.

 **********************************************************************

 Orbital symmetries:
       Occupied  (A') (A') (A') (A') (A")
       Virtual   (A') (A') (A') (A") (A') (A') (A') (A') (A") (A")
                 (A') (A') (A') (A') (A') (A') (A') (A") (A") (A')
                 (A") (A') (A') (A") (A') (A") (A') (A') (A') (A")
                 (A') (A") (A') (A') (A") (A') (A") (A') (A') (A')
                 (A') (A") (A') (A") (A") (A') (A') (A') (A') (A")
                 (A') (A") (A') (A') (A') (A") (A") (A') (A') (A")
                 (A") (A") (A') (A') (A') (A') (A') (A") (A') (A')
                 (A") (A') (A') (A') (A") (A') (A") (A') (A") (A")
                 (A") (A') (A') (A') (A') (A') (A')
 The electronic state is 1-A'.
 Alpha  occ. eigenvalues --  -20.55843  -1.35946  -0.74981  -0.56989  -0.50955
 Alpha virt. eigenvalues --    0.03026   0.04720   0.13715   0.15543   0.17318
 Alpha virt. eigenvalues --    0.18074   0.23243   0.24455   0.26208   0.31261
 Alpha virt. eigenvalues --    0.31904   0.36489   0.44101   0.47095   0.60841
 Alpha virt. eigenvalues --    0.65039   0.71414   0.71516   0.72774   0.83196
 Alpha virt. eigenvalues --    0.84542   0.88485   0.91527   0.91969   0.92634
 Alpha virt. eigenvalues --    0.92938   0.98805   1.02856   1.06146   1.09090
 Alpha virt. eigenvalues --    1.12993   1.17191   1.17889   1.25845   1.52712
 Alpha virt. eigenvalues --    1.58725   1.62769   1.74531   1.78254   2.04441
 Alpha virt. eigenvalues --    2.14722   2.25513   2.31017   2.33046   2.39829
 Alpha virt. eigenvalues --    2.40427   2.42184   2.47472   2.69456   2.70748
 Alpha virt. eigenvalues --    2.80375   2.88797   2.92305   3.66440   3.82309
 Alpha virt. eigenvalues --    4.01959   4.12452   4.22010   4.28510   4.39132
 Alpha virt. eigenvalues --    4.39902   4.42512   4.46085   4.48013   4.70375
 Alpha virt. eigenvalues --    4.78263   5.17238   5.24459   5.40456   5.47124
 Alpha virt. eigenvalues --    5.57465   5.83032   6.11977   6.54797   6.70702
 Alpha virt. eigenvalues --    6.82304   7.14269   7.24565   7.26678   7.33165
 Alpha virt. eigenvalues --    7.44151   7.55165   7.69049   7.90441   8.11704
 Alpha virt. eigenvalues --    8.84626  16.75719
          Condensed to atoms (all electrons):
               1          2          3
     1  O    7.821478   0.287008   0.286985
     2  H    0.287008   0.538389   0.003399
     3  H    0.286985   0.003399   0.485348
 Mulliken charges:
               1
     1  O   -0.395472
     2  H    0.171204
     3  H    0.224268
 Sum of Mulliken charges =  -0.00000
 Mulliken charges with hydrogens summed into heavy atoms:
               1
     1  O   -0.000000
 Electronic spatial extent (au):  <R**2>=             19.1933
 Charge=             -0.0000 electrons
 Dipole moment (field-independent basis, Debye):
    X=              0.0157    Y=             -1.7945    Z=              0.0000  Tot=              1.7945
 Quadrupole moment (field-independent basis, Debye-Ang):
   XX=             -3.8948   YY=             -6.5060   ZZ=             -7.5207
   XY=              0.1747   XZ=              0.0000   YZ=              0.0000
 Traceless Quadrupole moment (field-independent basis, Debye-Ang):
   XX=              2.0791   YY=             -0.5322   ZZ=             -1.5469
   XY=              0.1747   XZ=              0.0000   YZ=              0.0000
 Octapole moment (field-independent basis, Debye-Ang**2):
  XXX=              0.0581  YYY=             -0.9855  ZZZ=              0.0000  XYY=             -0.1033
  XXY=             -1.3303  XXZ=              0.0000  XZZ=              0.0257  YZZ=             -0.2450
  YYZ=              0.0000  XYZ=              0.0000
 Hexadecapole moment (field-independent basis, Debye-Ang**3):
 XXXX=             -5.4732 YYYY=             -7.0578 ZZZZ=             -6.7055 XXXY=              0.0331
 XXXZ=              0.0000 YYYX=             -0.0028 YYYZ=              0.0000 ZZZX=              0.0000
 ZZZY=              0.0000 XXYY=             -1.9186 XXZZ=             -2.4229 YYZZ=             -2.3228
 XXYZ=              0.0000 YYXZ=              0.0000 ZZXY=             -0.0344
 N-N= 9.408506131806D+00 E-N=-1.994806593119D+02  KE= 7.604180182965D+01
 Symmetry A'   KE= 7.158858024376D+01
 Symmetry A"   KE= 4.453221585889D+00
 Leave Link  601 at Wed Feb  8 13:49:56 2023, MaxMem=   754974720 cpu:               0.7 elap:               0.4
 (Enter /opt/cluster/programs/g16-c.01/g16/l9999.exe)
 Unable to Open any file for archive entry.
 1\1\GINC-NODE66\SP\RCCSD(T)-FC\Aug-CC-pVTZ\H2O1\BOITTIER\08-Feb-2023\0
 \\#P CCSD(T)/aug-cc-pVTZ scf(maxcycle=200)\\Gaussian input\\0,1\O,0,0.
 ,0.11751,0.\H,0,0.7183372325,-0.4395112028,0.\H,0,-0.8486339394,-0.329
 1458372,0.\\Version=ES64L-G16RevC.01\State=1-A'\HF=-76.0580554\MP2=-76
 .3241147\MP3=-76.327299\MP4D=-76.3317074\MP4DQ=-76.3277695\MP4SDQ=-76.
 3295097\CCSD=-76.3290601\CCSD(T)=-76.3374208\RMSD=2.577e-09\PG=CS [SG(
 H2O1)]\\@
 The archive entry for this job was punched.


 MAN IS A SINGULAR CREATURE.  HE HAS A SET OF GIFTS
 WHICH MAKE HIM UNIQUE AMONG THE ANIMALS: SO THAT, 
 UNLIKE THEM, HE IS NOT A FIGURE IN THE LANDSCAPE --
 HE IS A SHAPER OF THE LANDSCAPE.

                       -- JACOB BRONOWSKI
 Job cpu time:       0 days  0 hours  1 minutes 17.6 seconds.
 Elapsed time:       0 days  0 hours  0 minutes 32.7 seconds.
 File lengths (MBytes):  RWF=     75 Int=      0 D2E=      0 Chk=      2 Scr=      1
 Normal termination of Gaussian 16 at Wed Feb  8 13:49:56 2023.
