 Entering Gaussian System, Link 0=/opt/cluster/programs/g16-c.01/g16/g16
 Input=/scratch/boittier/jobs/tmp.7262670/gaussian_140_water_hf_pdz.com
 Output=/scratch/boittier/jobs/tmp.7262670/gaussian_140_water_hf_pdz.out
 Initial command:
 /opt/cluster/programs/g16-c.01/g16/l1.exe "/scratch/boittier/jobs/tmp.7262670/Gau-104261.inp" -scrdir="/scratch/boittier/jobs/tmp.7262670/"
 Entering Link 1 = /opt/cluster/programs/g16-c.01/g16/l1.exe PID=    104262.
  
 Copyright (c) 1988-2019, Gaussian, Inc.  All Rights Reserved.
  
 This is part of the Gaussian(R) 16 program.  It is based on
 the Gaussian(R) 09 system (copyright 2009, Gaussian, Inc.),
 the Gaussian(R) 03 system (copyright 2003, Gaussian, Inc.),
 the Gaussian(R) 98 system (copyright 1998, Gaussian, Inc.),
 the Gaussian(R) 94 system (copyright 1995, Gaussian, Inc.),
 the Gaussian 92(TM) system (copyright 1992, Gaussian, Inc.),
 the Gaussian 90(TM) system (copyright 1990, Gaussian, Inc.),
 the Gaussian 88(TM) system (copyright 1988, Gaussian, Inc.),
 the Gaussian 86(TM) system (copyright 1986, Carnegie Mellon
 University), and the Gaussian 82(TM) system (copyright 1983,
 Carnegie Mellon University). Gaussian is a federally registered
 trademark of Gaussian, Inc.
  
 This software contains proprietary and confidential information,
 including trade secrets, belonging to Gaussian, Inc.
  
 This software is provided under written license and may be
 used, copied, transmitted, or stored only in accord with that
 written license.
  
 The following legend is applicable only to US Government
 contracts under FAR:
  
                    RESTRICTED RIGHTS LEGEND
  
 Use, reproduction and disclosure by the US Government is
 subject to restrictions as set forth in subparagraphs (a)
 and (c) of the Commercial Computer Software - Restricted
 Rights clause in FAR 52.227-19.
  
 Gaussian, Inc.
 340 Quinnipiac St., Bldg. 40, Wallingford CT 06492
  
  
 ---------------------------------------------------------------
 Warning -- This program may not be used in any manner that
 competes with the business of Gaussian, Inc. or will provide
 assistance to any competitor of Gaussian, Inc.  The licensee
 of this program is prohibited from giving any competitor of
 Gaussian, Inc. access to this program.  By using this program,
 the user acknowledges that Gaussian, Inc. is engaged in the
 business of creating and licensing software in the field of
 computational chemistry and represents and warrants to the
 licensee that it is not a competitor of Gaussian, Inc. and that
 it will not use this program in any manner prohibited above.
 ---------------------------------------------------------------
  

 Cite this work as:
 Gaussian 16, Revision C.01,
 M. J. Frisch, G. W. Trucks, H. B. Schlegel, G. E. Scuseria, 
 M. A. Robb, J. R. Cheeseman, G. Scalmani, V. Barone, 
 G. A. Petersson, H. Nakatsuji, X. Li, M. Caricato, A. V. Marenich, 
 J. Bloino, B. G. Janesko, R. Gomperts, B. Mennucci, H. P. Hratchian, 
 J. V. Ortiz, A. F. Izmaylov, J. L. Sonnenberg, D. Williams-Young, 
 F. Ding, F. Lipparini, F. Egidi, J. Goings, B. Peng, A. Petrone, 
 T. Henderson, D. Ranasinghe, V. G. Zakrzewski, J. Gao, N. Rega, 
 G. Zheng, W. Liang, M. Hada, M. Ehara, K. Toyota, R. Fukuda, 
 J. Hasegawa, M. Ishida, T. Nakajima, Y. Honda, O. Kitao, H. Nakai, 
 T. Vreven, K. Throssell, J. A. Montgomery, Jr., J. E. Peralta, 
 F. Ogliaro, M. J. Bearpark, J. J. Heyd, E. N. Brothers, K. N. Kudin, 
 V. N. Staroverov, T. A. Keith, R. Kobayashi, J. Normand, 
 K. Raghavachari, A. P. Rendell, J. C. Burant, S. S. Iyengar, 
 J. Tomasi, M. Cossi, J. M. Millam, M. Klene, C. Adamo, R. Cammi, 
 J. W. Ochterski, R. L. Martin, K. Morokuma, O. Farkas, 
 J. B. Foresman, and D. J. Fox, Gaussian, Inc., Wallingford CT, 2019.
 
 ******************************************
 Gaussian 16:  ES64L-G16RevC.01  3-Jul-2019
                 8-Feb-2023 
 ******************************************
 %nproc=4
 Will use up to    4 processors via shared memory.
 %mem=5760MB
 %chk=gaussian_140_water_hf_pdz.chk
 ------------------------------
 #P HF/6-31g* scf(maxcycle=200)
 ------------------------------
 1/38=1,172=1/1;
 2/12=2,17=6,18=5,40=1/2;
 3/5=1,6=6,7=1,11=9,25=1,30=1/1,2,3;
 4//1;
 5/5=2,7=200,38=5/2;
 6/7=2,8=2,9=2,10=2,28=1/1;
 99/5=1,9=1/99;
 Leave Link    1 at Wed Feb  8 15:07:00 2023, MaxMem=   754974720 cpu:               0.1 elap:               0.1
 (Enter /opt/cluster/programs/g16-c.01/g16/l101.exe)
 --------------
 Gaussian input
 --------------
 Symbolic Z-matrix:
 Charge =  0 Multiplicity = 1
 O                     0.        0.11751   0. 
 H                     0.79736  -0.50079   0. 
 H                    -0.51161  -0.69362   0. 
 
 ITRead=  0  0  0
 MicOpt= -1 -1 -1
 NAtoms=      3 NQM=        3 NQMF=       0 NMMI=      0 NMMIF=      0
                NMic=       0 NMicF=      0.
                    Isotopes and Nuclear Properties:
 (Nuclear quadrupole moments (NQMom) in fm**2, nuclear magnetic moments (NMagM)
  in nuclear magnetons)

  Atom         1           2           3
 IAtWgt=          16           1           1
 AtmWgt=  15.9949146   1.0078250   1.0078250
 NucSpn=           0           1           1
 AtZEff=  -0.0000000  -0.0000000  -0.0000000
 NQMom=    0.0000000   0.0000000   0.0000000
 NMagM=    0.0000000   2.7928460   2.7928460
 AtZNuc=   8.0000000   1.0000000   1.0000000
 Leave Link  101 at Wed Feb  8 15:07:00 2023, MaxMem=   754974720 cpu:               1.1 elap:               0.4
 (Enter /opt/cluster/programs/g16-c.01/g16/l202.exe)
                          Input orientation:                          
 ---------------------------------------------------------------------
 Center     Atomic      Atomic             Coordinates (Angstroms)
 Number     Number       Type             X           Y           Z
 ---------------------------------------------------------------------
      1          8           0        0.000000    0.117510    0.000000
      2          1           0        0.797362   -0.500790    0.000000
      3          1           0       -0.511611   -0.693622    0.000000
 ---------------------------------------------------------------------
                    Distance matrix (angstroms):
                    1          2          3
     1  O    0.000000
     2  H    1.009000   0.000000
     3  H    0.959000   1.323100   0.000000
 Stoichiometry    H2O
 Framework group  CS[SG(H2O)]
 Deg. of freedom     3
 Full point group                 CS      NOp   2
 Largest Abelian subgroup         CS      NOp   2
 Largest concise Abelian subgroup C1      NOp   1
                         Standard orientation:                         
 ---------------------------------------------------------------------
 Center     Atomic      Atomic             Coordinates (Angstroms)
 Number     Number       Type             X           Y           Z
 ---------------------------------------------------------------------
      1          8           0        0.000000    0.145771    0.000000
      2          1           0        0.660689   -0.616837   -0.000000
      3          1           0       -0.660689   -0.549334   -0.000000
 ---------------------------------------------------------------------
 Rotational constants (GHZ):         588.6624381         518.5671585         275.6980203
 Leave Link  202 at Wed Feb  8 15:07:00 2023, MaxMem=   754974720 cpu:               0.0 elap:               0.0
 (Enter /opt/cluster/programs/g16-c.01/g16/l301.exe)
 Standard basis: 6-31G(d) (6D, 7F)
 Ernie: Thresh=  0.10000D-02 Tol=  0.10000D-05 Strict=F.
 There are    15 symmetry adapted cartesian basis functions of A'  symmetry.
 There are     4 symmetry adapted cartesian basis functions of A"  symmetry.
 There are    15 symmetry adapted basis functions of A'  symmetry.
 There are     4 symmetry adapted basis functions of A"  symmetry.
    19 basis functions,    36 primitive gaussians,    19 cartesian basis functions
     5 alpha electrons        5 beta electrons
       nuclear repulsion energy         9.0100176668 Hartrees.
 IExCor=    0 DFT=F Ex=HF Corr=None ExCW=0 ScaHFX=  1.000000
 ScaDFX=  1.000000  1.000000  1.000000  1.000000 ScalE2=  1.000000  1.000000
 IRadAn=      5 IRanWt=     -1 IRanGd=            0 ICorTp=0 IEmpDi=  4
 NAtoms=    3 NActive=    3 NUniq=    3 SFac= 1.00D+00 NAtFMM=   60 NAOKFM=F Big=F
 Integral buffers will be    131072 words long.
 Raffenetti 1 integral format.
 Two-electron integral symmetry is turned on.
 Leave Link  301 at Wed Feb  8 15:07:00 2023, MaxMem=   754974720 cpu:               0.1 elap:               0.1
 (Enter /opt/cluster/programs/g16-c.01/g16/l302.exe)
 NPDir=0 NMtPBC=     1 NCelOv=     1 NCel=       1 NClECP=     1 NCelD=      1
         NCelK=      1 NCelE2=     1 NClLst=     1 CellRange=     0.0.
 One-electron integrals computed using PRISM.
 One-electron integral symmetry used in STVInt
 NBasis=    19 RedAO= T EigKep=  2.35D-02  NBF=    15     4
 NBsUse=    19 1.00D-06 EigRej= -1.00D+00 NBFU=    15     4
 Leave Link  302 at Wed Feb  8 15:07:01 2023, MaxMem=   754974720 cpu:               0.6 elap:               0.2
 (Enter /opt/cluster/programs/g16-c.01/g16/l303.exe)
 DipDrv:  MaxL=1.
 Leave Link  303 at Wed Feb  8 15:07:01 2023, MaxMem=   754974720 cpu:               0.3 elap:               0.2
 (Enter /opt/cluster/programs/g16-c.01/g16/l401.exe)
 ExpMin= 1.61D-01 ExpMax= 5.48D+03 ExpMxC= 8.25D+02 IAcc=3 IRadAn=         5 AccDes= 0.00D+00
 Harris functional with IExCor=  205 and IRadAn=       5 diagonalized for initial guess.
 HarFok:  IExCor=  205 AccDes= 0.00D+00 IRadAn=         5 IDoV= 1 UseB2=F ITyADJ=14
 ICtDFT=  3500011 ScaDFX=  1.000000  1.000000  1.000000  1.000000
 FoFCou: FMM=F IPFlag=           0 FMFlag=      100000 FMFlg1=           0
         NFxFlg=           0 DoJE=T BraDBF=F KetDBF=T FulRan=T
         wScrn=  0.000000 ICntrl=       500 IOpCl=  0 I1Cent=   200000004 NGrid=           0
         NMat0=    1 NMatS0=      1 NMatT0=    0 NMatD0=    1 NMtDS0=    0 NMtDT0=    0
 Petite list used in FoFCou.
 Harris En= -76.0879052957168    
 JPrj=0 DoOrth=F DoCkMO=F.
 Initial guess orbital symmetries:
       Occupied  (A') (A') (A') (A') (A")
       Virtual   (A') (A') (A') (A') (A") (A') (A') (A') (A') (A")
                 (A") (A') (A') (A')
 The electronic state of the initial guess is 1-A'.
 Leave Link  401 at Wed Feb  8 15:07:01 2023, MaxMem=   754974720 cpu:               0.8 elap:               0.2
 (Enter /opt/cluster/programs/g16-c.01/g16/l502.exe)
 Keep R1 ints in memory in symmetry-blocked form, NReq=845369.
 FoFCou: FMM=F IPFlag=           0 FMFlag=           0 FMFlg1=           0
         NFxFlg=           0 DoJE=F BraDBF=F KetDBF=F FulRan=T
         wScrn=  0.000000 ICntrl=       600 IOpCl=  0 I1Cent=           0 NGrid=           0
         NMat0=    1 NMatS0=    190 NMatT0=    0 NMatD0=    1 NMtDS0=    0 NMtDT0=    0
 Petite list used in FoFCou.
 Closed shell SCF:
 Using DIIS extrapolation, IDIIS=  1040.
 NGot=   754974720 LenX=   754962225 LenY=   754961343
 Requested convergence on RMS density matrix=1.00D-08 within 200 cycles.
 Requested convergence on MAX density matrix=1.00D-06.
 Requested convergence on             energy=1.00D-06.
 No special actions if energy rises.

 Cycle   1  Pass 1  IDiag  1:
 E= -75.9118768041694    
 DIIS: error= 7.38D-02 at cycle   1 NSaved=   1.
 NSaved= 1 IEnMin= 1 EnMin= -75.9118768041694     IErMin= 1 ErrMin= 7.38D-02
 ErrMax= 7.38D-02  0.00D+00 EMaxC= 1.00D-01 BMatC= 1.30D-01 BMatP= 1.30D-01
 IDIUse=3 WtCom= 2.62D-01 WtEn= 7.38D-01
 Coeff-Com:  0.100D+01
 Coeff-En:   0.100D+01
 Coeff:      0.100D+01
 Gap=     0.577 Goal=   None    Shift=    0.000
 GapD=    0.577 DampG=2.000 DampE=0.500 DampFc=1.0000 IDamp=-1.
 RMSDP=1.59D-02 MaxDP=1.20D-01              OVMax= 1.35D-01

 Cycle   2  Pass 1  IDiag  1:
 E= -75.9656400829665     Delta-E=       -0.053763278797 Rises=F Damp=F
 DIIS: error= 5.33D-02 at cycle   2 NSaved=   2.
 NSaved= 2 IEnMin= 2 EnMin= -75.9656400829665     IErMin= 2 ErrMin= 5.33D-02
 ErrMax= 5.33D-02  0.00D+00 EMaxC= 1.00D-01 BMatC= 4.34D-02 BMatP= 1.30D-01
 IDIUse=3 WtCom= 4.67D-01 WtEn= 5.33D-01
 Coeff-Com:  0.348D+00 0.652D+00
 Coeff-En:   0.131D+00 0.869D+00
 Coeff:      0.232D+00 0.768D+00
 Gap=     0.722 Goal=   None    Shift=    0.000
 RMSDP=8.27D-03 MaxDP=6.21D-02 DE=-5.38D-02 OVMax= 5.36D-02

 Cycle   3  Pass 1  IDiag  1:
 E= -75.9927292668932     Delta-E=       -0.027089183927 Rises=F Damp=F
 DIIS: error= 1.17D-02 at cycle   3 NSaved=   3.
 NSaved= 3 IEnMin= 3 EnMin= -75.9927292668932     IErMin= 3 ErrMin= 1.17D-02
 ErrMax= 1.17D-02  0.00D+00 EMaxC= 1.00D-01 BMatC= 2.40D-03 BMatP= 4.34D-02
 IDIUse=3 WtCom= 8.83D-01 WtEn= 1.17D-01
 Coeff-Com: -0.280D-01 0.162D+00 0.866D+00
 Coeff-En:   0.000D+00 0.000D+00 0.100D+01
 Coeff:     -0.247D-01 0.143D+00 0.882D+00
 Gap=     0.697 Goal=   None    Shift=    0.000
 RMSDP=1.55D-03 MaxDP=1.28D-02 DE=-2.71D-02 OVMax= 1.42D-02

 Cycle   4  Pass 1  IDiag  1:
 E= -75.9945032473821     Delta-E=       -0.001773980489 Rises=F Damp=F
 DIIS: error= 1.75D-03 at cycle   4 NSaved=   4.
 NSaved= 4 IEnMin= 4 EnMin= -75.9945032473821     IErMin= 4 ErrMin= 1.75D-03
 ErrMax= 1.75D-03  0.00D+00 EMaxC= 1.00D-01 BMatC= 2.71D-05 BMatP= 2.40D-03
 IDIUse=3 WtCom= 9.83D-01 WtEn= 1.75D-02
 Coeff-Com:  0.616D-02-0.752D-01-0.238D+00 0.131D+01
 Coeff-En:   0.000D+00 0.000D+00 0.000D+00 0.100D+01
 Coeff:      0.606D-02-0.739D-01-0.234D+00 0.130D+01
 Gap=     0.701 Goal=   None    Shift=    0.000
 RMSDP=2.49D-04 MaxDP=2.40D-03 DE=-1.77D-03 OVMax= 1.96D-03

 Cycle   5  Pass 1  IDiag  1:
 E= -75.9945280252594     Delta-E=       -0.000024777877 Rises=F Damp=F
 DIIS: error= 1.76D-04 at cycle   5 NSaved=   5.
 NSaved= 5 IEnMin= 5 EnMin= -75.9945280252594     IErMin= 5 ErrMin= 1.76D-04
 ErrMax= 1.76D-04  0.00D+00 EMaxC= 1.00D-01 BMatC= 1.99D-07 BMatP= 2.71D-05
 IDIUse=3 WtCom= 9.98D-01 WtEn= 1.76D-03
 Coeff-Com:  0.218D-04 0.643D-02 0.117D-01-0.207D+00 0.119D+01
 Coeff-En:   0.000D+00 0.000D+00 0.000D+00 0.000D+00 0.100D+01
 Coeff:      0.218D-04 0.642D-02 0.117D-01-0.206D+00 0.119D+01
 Gap=     0.701 Goal=   None    Shift=    0.000
 RMSDP=3.81D-05 MaxDP=3.36D-04 DE=-2.48D-05 OVMax= 2.97D-04

 Cycle   6  Pass 1  IDiag  1:
 E= -75.9945284473901     Delta-E=       -0.000000422131 Rises=F Damp=F
 DIIS: error= 2.85D-05 at cycle   6 NSaved=   6.
 NSaved= 6 IEnMin= 6 EnMin= -75.9945284473901     IErMin= 6 ErrMin= 2.85D-05
 ErrMax= 2.85D-05  0.00D+00 EMaxC= 1.00D-01 BMatC= 6.57D-09 BMatP= 1.99D-07
 IDIUse=1 WtCom= 1.00D+00 WtEn= 0.00D+00
 Coeff-Com: -0.240D-03 0.186D-02 0.751D-02-0.163D-01-0.235D+00 0.124D+01
 Coeff:     -0.240D-03 0.186D-02 0.751D-02-0.163D-01-0.235D+00 0.124D+01
 Gap=     0.701 Goal=   None    Shift=    0.000
 RMSDP=9.09D-06 MaxDP=6.68D-05 DE=-4.22D-07 OVMax= 6.86D-05

 Cycle   7  Pass 1  IDiag  1:
 E= -75.9945284618391     Delta-E=       -0.000000014449 Rises=F Damp=F
 DIIS: error= 3.25D-06 at cycle   7 NSaved=   7.
 NSaved= 7 IEnMin= 7 EnMin= -75.9945284618391     IErMin= 7 ErrMin= 3.25D-06
 ErrMax= 3.25D-06  0.00D+00 EMaxC= 1.00D-01 BMatC= 1.26D-10 BMatP= 6.57D-09
 IDIUse=1 WtCom= 1.00D+00 WtEn= 0.00D+00
 Coeff-Com:  0.652D-04-0.658D-03-0.239D-02 0.924D-02 0.427D-01-0.327D+00
 Coeff-Com:  0.128D+01
 Coeff:      0.652D-04-0.658D-03-0.239D-02 0.924D-02 0.427D-01-0.327D+00
 Coeff:      0.128D+01
 Gap=     0.701 Goal=   None    Shift=    0.000
 RMSDP=9.54D-07 MaxDP=7.08D-06 DE=-1.44D-08 OVMax= 8.09D-06

 Cycle   8  Pass 1  IDiag  1:
 E= -75.9945284621060     Delta-E=       -0.000000000267 Rises=F Damp=F
 DIIS: error= 7.66D-07 at cycle   8 NSaved=   8.
 NSaved= 8 IEnMin= 8 EnMin= -75.9945284621060     IErMin= 8 ErrMin= 7.66D-07
 ErrMax= 7.66D-07  0.00D+00 EMaxC= 1.00D-01 BMatC= 6.67D-12 BMatP= 1.26D-10
 IDIUse=1 WtCom= 1.00D+00 WtEn= 0.00D+00
 Coeff-Com: -0.102D-04 0.135D-03 0.450D-03-0.251D-02-0.232D-02 0.502D-01
 Coeff-Com: -0.425D+00 0.138D+01
 Coeff:     -0.102D-04 0.135D-03 0.450D-03-0.251D-02-0.232D-02 0.502D-01
 Coeff:     -0.425D+00 0.138D+01
 Gap=     0.701 Goal=   None    Shift=    0.000
 RMSDP=2.87D-07 MaxDP=1.68D-06 DE=-2.67D-10 OVMax= 2.49D-06

 Cycle   9  Pass 1  IDiag  1:
 E= -75.9945284621247     Delta-E=       -0.000000000019 Rises=F Damp=F
 DIIS: error= 1.23D-07 at cycle   9 NSaved=   9.
 NSaved= 9 IEnMin= 9 EnMin= -75.9945284621247     IErMin= 9 ErrMin= 1.23D-07
 ErrMax= 1.23D-07  0.00D+00 EMaxC= 1.00D-01 BMatC= 1.86D-13 BMatP= 6.67D-12
 IDIUse=1 WtCom= 1.00D+00 WtEn= 0.00D+00
 Coeff-Com: -0.688D-08-0.943D-05-0.240D-04 0.316D-03-0.112D-02-0.852D-03
 Coeff-Com:  0.708D-01-0.402D+00 0.133D+01
 Coeff:     -0.688D-08-0.943D-05-0.240D-04 0.316D-03-0.112D-02-0.852D-03
 Coeff:      0.708D-01-0.402D+00 0.133D+01
 Gap=     0.701 Goal=   None    Shift=    0.000
 RMSDP=5.94D-08 MaxDP=3.10D-07 DE=-1.88D-11 OVMax= 5.86D-07

 Cycle  10  Pass 1  IDiag  1:
 E= -75.9945284621253     Delta-E=       -0.000000000001 Rises=F Damp=F
 DIIS: error= 1.39D-08 at cycle  10 NSaved=  10.
 NSaved=10 IEnMin=10 EnMin= -75.9945284621253     IErMin=10 ErrMin= 1.39D-08
 ErrMax= 1.39D-08  0.00D+00 EMaxC= 1.00D-01 BMatC= 3.62D-15 BMatP= 1.86D-13
 IDIUse=1 WtCom= 1.00D+00 WtEn= 0.00D+00
 Coeff-Com:  0.249D-06-0.186D-05-0.716D-05 0.104D-04 0.231D-03-0.106D-02
 Coeff-Com:  0.301D-03 0.185D-01-0.159D+00 0.114D+01
 Coeff:      0.249D-06-0.186D-05-0.716D-05 0.104D-04 0.231D-03-0.106D-02
 Coeff:      0.301D-03 0.185D-01-0.159D+00 0.114D+01
 Gap=     0.701 Goal=   None    Shift=    0.000
 RMSDP=6.32D-09 MaxDP=2.94D-08 DE=-5.83D-13 OVMax= 6.36D-08

 SCF Done:  E(RHF) =  -75.9945284621     A.U. after   10 cycles
            NFock= 10  Conv=0.63D-08     -V/T= 2.0031
 KE= 7.576170504126D+01 PE=-1.983969715784D+02 EE= 3.763072040815D+01
 Leave Link  502 at Wed Feb  8 15:07:04 2023, MaxMem=   754974720 cpu:               5.3 elap:               2.7
 (Enter /opt/cluster/programs/g16-c.01/g16/l601.exe)
 Copying SCF densities to generalized density rwf, IOpCl= 0 IROHF=0.

 **********************************************************************

            Population analysis using the SCF Density.

 **********************************************************************

 Orbital symmetries:
       Occupied  (A') (A') (A') (A') (A")
       Virtual   (A') (A') (A') (A') (A") (A') (A') (A') (A') (A")
                 (A") (A') (A') (A')
 The electronic state is 1-A'.
 Alpha  occ. eigenvalues --  -20.57554  -1.34732  -0.65297  -0.60716  -0.50391
 Alpha virt. eigenvalues --    0.19742   0.29367   0.95090   1.12156   1.16246
 Alpha virt. eigenvalues --    1.18382   1.35787   1.50343   1.99615   2.04807
 Alpha virt. eigenvalues --    2.05633   2.65820   2.81619   3.91459
          Condensed to atoms (all electrons):
               1          2          3
     1  O    8.321267   0.252693   0.254277
     2  H    0.252693   0.372009  -0.033016
     3  H    0.254277  -0.033016   0.358816
 Mulliken charges:
               1
     1  O   -0.828236
     2  H    0.408314
     3  H    0.419923
 Sum of Mulliken charges =  -0.00000
 Mulliken charges with hydrogens summed into heavy atoms:
               1
     1  O   -0.000000
 Electronic spatial extent (au):  <R**2>=             19.3589
 Charge=             -0.0000 electrons
 Dipole moment (field-independent basis, Debye):
    X=             -0.0540    Y=             -2.5672    Z=             -0.0000  Tot=              2.5677
 Quadrupole moment (field-independent basis, Debye-Ang):
   XX=             -5.0610   YY=             -5.4034   ZZ=             -7.2871
   XY=             -0.0689   XZ=              0.0000   YZ=              0.0000
 Traceless Quadrupole moment (field-independent basis, Debye-Ang):
   XX=              0.8562   YY=              0.5138   ZZ=             -1.3699
   XY=             -0.0689   XZ=              0.0000   YZ=              0.0000
 Octapole moment (field-independent basis, Debye-Ang**2):
  XXX=             -0.1122  YYY=             -1.8764  ZZZ=             -0.0000  XYY=              0.0624
  XXY=             -1.2479  XXZ=             -0.0000  XZZ=             -0.0376  YZZ=             -0.4197
  YYZ=             -0.0000  XYZ=             -0.0000
 Hexadecapole moment (field-independent basis, Debye-Ang**3):
 XXXX=             -6.2468 YYYY=             -6.4981 ZZZZ=             -5.2739 XXXY=              0.0670
 XXXZ=             -0.0000 YYYX=              0.0018 YYYZ=             -0.0000 ZZZX=             -0.0000
 ZZZY=             -0.0000 XXYY=             -1.6526 XXZZ=             -2.0552 YYZZ=             -2.0800
 XXYZ=              0.0000 YYXZ=             -0.0000 ZZXY=              0.0361
 N-N= 9.010017666810D+00 E-N=-1.983969716386D+02  KE= 7.576170504126D+01
 Symmetry A'   KE= 7.117708720476D+01
 Symmetry A"   KE= 4.584617836507D+00
 No NMR shielding tensors so no spin-rotation constants.
 Leave Link  601 at Wed Feb  8 15:07:04 2023, MaxMem=   754974720 cpu:               1.3 elap:               0.7
 (Enter /opt/cluster/programs/g16-c.01/g16/l9999.exe)
 Unable to Open any file for archive entry.
 1\1\GINC-NODE61\SP\RHF\6-31G(d)\H2O1\BOITTIER\08-Feb-2023\0\\#P HF/6-3
 1g* scf(maxcycle=200)\\Gaussian input\\0,1\O,0,0.,0.11751,0.\H,0,0.797
 3622306,-0.5007896629,0.\H,0,-0.5116106314,-0.6936222715,0.\\Version=E
 S64L-G16RevC.01\State=1-A'\HF=-75.9945285\RMSD=6.317e-09\Dipole=0.1771
 396,-0.9945751,0.\Quadrupole=0.6464597,0.3720475,-1.0185072,0.0016259,
 0.,0.\PG=CS [SG(H2O1)]\\@
 The archive entry for this job was punched.


 AND ALL THIS SCIENCE I DON'T UNDERSTAND
 IT'S JUST MY JOB FIVE DAYS A WEEK

                           -- ELTON JOHN, "ROCKET MAN"
 Job cpu time:       0 days  0 hours  0 minutes  9.9 seconds.
 Elapsed time:       0 days  0 hours  0 minutes  4.5 seconds.
 File lengths (MBytes):  RWF=      6 Int=      0 D2E=      0 Chk=      1 Scr=      1
 Normal termination of Gaussian 16 at Wed Feb  8 15:07:04 2023.
