 Entering Gaussian System, Link 0=/opt/cluster/programs/g16-c.01/g16/g16
 Input=/scratch/boittier/jobs/tmp.7261790/gaussian_116_water_ccsdt_atz.com
 Output=/scratch/boittier/jobs/tmp.7261790/gaussian_116_water_ccsdt_atz.out
 Initial command:
 /opt/cluster/programs/g16-c.01/g16/l1.exe "/scratch/boittier/jobs/tmp.7261790/Gau-137276.inp" -scrdir="/scratch/boittier/jobs/tmp.7261790/"
 Entering Link 1 = /opt/cluster/programs/g16-c.01/g16/l1.exe PID=    137277.
  
 Copyright (c) 1988-2019, Gaussian, Inc.  All Rights Reserved.
  
 This is part of the Gaussian(R) 16 program.  It is based on
 the Gaussian(R) 09 system (copyright 2009, Gaussian, Inc.),
 the Gaussian(R) 03 system (copyright 2003, Gaussian, Inc.),
 the Gaussian(R) 98 system (copyright 1998, Gaussian, Inc.),
 the Gaussian(R) 94 system (copyright 1995, Gaussian, Inc.),
 the Gaussian 92(TM) system (copyright 1992, Gaussian, Inc.),
 the Gaussian 90(TM) system (copyright 1990, Gaussian, Inc.),
 the Gaussian 88(TM) system (copyright 1988, Gaussian, Inc.),
 the Gaussian 86(TM) system (copyright 1986, Carnegie Mellon
 University), and the Gaussian 82(TM) system (copyright 1983,
 Carnegie Mellon University). Gaussian is a federally registered
 trademark of Gaussian, Inc.
  
 This software contains proprietary and confidential information,
 including trade secrets, belonging to Gaussian, Inc.
  
 This software is provided under written license and may be
 used, copied, transmitted, or stored only in accord with that
 written license.
  
 The following legend is applicable only to US Government
 contracts under FAR:
  
                    RESTRICTED RIGHTS LEGEND
  
 Use, reproduction and disclosure by the US Government is
 subject to restrictions as set forth in subparagraphs (a)
 and (c) of the Commercial Computer Software - Restricted
 Rights clause in FAR 52.227-19.
  
 Gaussian, Inc.
 340 Quinnipiac St., Bldg. 40, Wallingford CT 06492
  
  
 ---------------------------------------------------------------
 Warning -- This program may not be used in any manner that
 competes with the business of Gaussian, Inc. or will provide
 assistance to any competitor of Gaussian, Inc.  The licensee
 of this program is prohibited from giving any competitor of
 Gaussian, Inc. access to this program.  By using this program,
 the user acknowledges that Gaussian, Inc. is engaged in the
 business of creating and licensing software in the field of
 computational chemistry and represents and warrants to the
 licensee that it is not a competitor of Gaussian, Inc. and that
 it will not use this program in any manner prohibited above.
 ---------------------------------------------------------------
  

 Cite this work as:
 Gaussian 16, Revision C.01,
 M. J. Frisch, G. W. Trucks, H. B. Schlegel, G. E. Scuseria, 
 M. A. Robb, J. R. Cheeseman, G. Scalmani, V. Barone, 
 G. A. Petersson, H. Nakatsuji, X. Li, M. Caricato, A. V. Marenich, 
 J. Bloino, B. G. Janesko, R. Gomperts, B. Mennucci, H. P. Hratchian, 
 J. V. Ortiz, A. F. Izmaylov, J. L. Sonnenberg, D. Williams-Young, 
 F. Ding, F. Lipparini, F. Egidi, J. Goings, B. Peng, A. Petrone, 
 T. Henderson, D. Ranasinghe, V. G. Zakrzewski, J. Gao, N. Rega, 
 G. Zheng, W. Liang, M. Hada, M. Ehara, K. Toyota, R. Fukuda, 
 J. Hasegawa, M. Ishida, T. Nakajima, Y. Honda, O. Kitao, H. Nakai, 
 T. Vreven, K. Throssell, J. A. Montgomery, Jr., J. E. Peralta, 
 F. Ogliaro, M. J. Bearpark, J. J. Heyd, E. N. Brothers, K. N. Kudin, 
 V. N. Staroverov, T. A. Keith, R. Kobayashi, J. Normand, 
 K. Raghavachari, A. P. Rendell, J. C. Burant, S. S. Iyengar, 
 J. Tomasi, M. Cossi, J. M. Millam, M. Klene, C. Adamo, R. Cammi, 
 J. W. Ochterski, R. L. Martin, K. Morokuma, O. Farkas, 
 J. B. Foresman, and D. J. Fox, Gaussian, Inc., Wallingford CT, 2019.
 
 ******************************************
 Gaussian 16:  ES64L-G16RevC.01  3-Jul-2019
                 8-Feb-2023 
 ******************************************
 %nproc=4
 Will use up to    4 processors via shared memory.
 %mem=5760MB
 %chk=gaussian_116_water_ccsdt_atz.chk
 ----------------------------------------
 #P CCSD(T)/aug-cc-pVTZ scf(maxcycle=200)
 ----------------------------------------
 1/38=1,172=1/1;
 2/12=2,17=6,18=5,40=1/2;
 3/5=16,6=1,7=10,11=9,25=1,30=1/1,2,3;
 4//1;
 5/5=2,7=200,38=5/2;
 8/6=4,9=120000,10=1/1,4;
 9/5=7,14=2/13;
 6/7=2,8=2,9=2,10=2/1;
 99/5=1,9=1/99;
 Leave Link    1 at Wed Feb  8 13:54:27 2023, MaxMem=   754974720 cpu:               0.2 elap:               0.1
 (Enter /opt/cluster/programs/g16-c.01/g16/l101.exe)
 --------------
 Gaussian input
 --------------
 Symbolic Z-matrix:
 Charge =  0 Multiplicity = 1
 O                     0.        0.11751   0. 
 H                     0.75785  -0.47015   0. 
 H                    -0.90874  -0.32099   0. 
 
 ITRead=  0  0  0
 MicOpt= -1 -1 -1
 NAtoms=      3 NQM=        3 NQMF=       0 NMMI=      0 NMMIF=      0
                NMic=       0 NMicF=      0.
                    Isotopes and Nuclear Properties:
 (Nuclear quadrupole moments (NQMom) in fm**2, nuclear magnetic moments (NMagM)
  in nuclear magnetons)

  Atom         1           2           3
 IAtWgt=          16           1           1
 AtmWgt=  15.9949146   1.0078250   1.0078250
 NucSpn=           0           1           1
 AtZEff=  -0.0000000  -0.0000000  -0.0000000
 NQMom=    0.0000000   0.0000000   0.0000000
 NMagM=    0.0000000   2.7928460   2.7928460
 AtZNuc=   8.0000000   1.0000000   1.0000000
 Leave Link  101 at Wed Feb  8 13:54:27 2023, MaxMem=   754974720 cpu:               1.0 elap:               0.3
 (Enter /opt/cluster/programs/g16-c.01/g16/l202.exe)
                          Input orientation:                          
 ---------------------------------------------------------------------
 Center     Atomic      Atomic             Coordinates (Angstroms)
 Number     Number       Type             X           Y           Z
 ---------------------------------------------------------------------
      1          8           0        0.000000    0.117510    0.000000
      2          1           0        0.757850   -0.470150    0.000000
      3          1           0       -0.908737   -0.320986    0.000000
 ---------------------------------------------------------------------
                    Distance matrix (angstroms):
                    1          2          3
     1  O    0.000000
     2  H    0.959000   0.000000
     3  H    1.009000   1.673248   0.000000
 Stoichiometry    H2O
 Framework group  CS[SG(H2O)]
 Deg. of freedom     3
 Full point group                 CS      NOp   2
 Largest Abelian subgroup         CS      NOp   2
 Largest concise Abelian subgroup C1      NOp   1
                         Standard orientation:                         
 ---------------------------------------------------------------------
 Center     Atomic      Atomic             Coordinates (Angstroms)
 Number     Number       Type             X           Y           Z
 ---------------------------------------------------------------------
      1          8           0        0.000000    0.103719    0.000000
      2          1           0        0.835278   -0.367440    0.000000
      3          1           0       -0.835278   -0.462312    0.000000
 ---------------------------------------------------------------------
 Rotational constants (GHZ):        1054.8959364         357.6189123         267.0773604
 Leave Link  202 at Wed Feb  8 13:54:27 2023, MaxMem=   754974720 cpu:               0.2 elap:               0.1
 (Enter /opt/cluster/programs/g16-c.01/g16/l301.exe)
 Standard basis: Aug-CC-pVTZ (5D, 7F)
 Ernie: Thresh=  0.10000D-02 Tol=  0.10000D-05 Strict=F.
 Ernie:  3 primitive shells out of 52 were deleted.
 There are    73 symmetry adapted cartesian basis functions of A'  symmetry.
 There are    32 symmetry adapted cartesian basis functions of A"  symmetry.
 There are    62 symmetry adapted basis functions of A'  symmetry.
 There are    30 symmetry adapted basis functions of A"  symmetry.
    92 basis functions,   126 primitive gaussians,   105 cartesian basis functions
     5 alpha electrons        5 beta electrons
       nuclear repulsion energy         8.9263226376 Hartrees.
 IExCor=    0 DFT=F Ex=HF Corr=None ExCW=0 ScaHFX=  1.000000
 ScaDFX=  1.000000  1.000000  1.000000  1.000000 ScalE2=  1.000000  1.000000
 IRadAn=      5 IRanWt=     -1 IRanGd=            0 ICorTp=0 IEmpDi=  4
 NAtoms=    3 NActive=    3 NUniq=    3 SFac= 1.00D+00 NAtFMM=   60 NAOKFM=F Big=F
 Integral buffers will be    131072 words long.
 Raffenetti 1 integral format.
 Two-electron integral symmetry is turned on.
 Leave Link  301 at Wed Feb  8 13:54:27 2023, MaxMem=   754974720 cpu:               0.1 elap:               0.0
 (Enter /opt/cluster/programs/g16-c.01/g16/l302.exe)
 NPDir=0 NMtPBC=     1 NCelOv=     1 NCel=       1 NClECP=     1 NCelD=      1
         NCelK=      1 NCelE2=     1 NClLst=     1 CellRange=     0.0.
 One-electron integrals computed using PRISM.
 One-electron integral symmetry used in STVInt
 NBasis=    92 RedAO= T EigKep=  3.64D-04  NBF=    62    30
 NBsUse=    92 1.00D-06 EigRej= -1.00D+00 NBFU=    62    30
 Leave Link  302 at Wed Feb  8 13:54:28 2023, MaxMem=   754974720 cpu:               0.5 elap:               0.1
 (Enter /opt/cluster/programs/g16-c.01/g16/l303.exe)
 DipDrv:  MaxL=1.
 Leave Link  303 at Wed Feb  8 13:54:28 2023, MaxMem=   754974720 cpu:               0.5 elap:               0.2
 (Enter /opt/cluster/programs/g16-c.01/g16/l401.exe)
 ExpMin= 2.53D-02 ExpMax= 1.53D+04 ExpMxC= 5.22D+02 IAcc=3 IRadAn=         5 AccDes= 0.00D+00
 Harris functional with IExCor=  205 and IRadAn=       5 diagonalized for initial guess.
 HarFok:  IExCor=  205 AccDes= 0.00D+00 IRadAn=         5 IDoV= 1 UseB2=F ITyADJ=14
 ICtDFT=  3500011 ScaDFX=  1.000000  1.000000  1.000000  1.000000
 FoFCou: FMM=F IPFlag=           0 FMFlag=      100000 FMFlg1=           0
         NFxFlg=           0 DoJE=T BraDBF=F KetDBF=T FulRan=T
         wScrn=  0.000000 ICntrl=       500 IOpCl=  0 I1Cent=   200000004 NGrid=           0
         NMat0=    1 NMatS0=      1 NMatT0=    0 NMatD0=    1 NMtDS0=    0 NMtDT0=    0
 Petite list used in FoFCou.
 Harris En= -76.1488301213910    
 JPrj=0 DoOrth=F DoCkMO=F.
 Initial guess orbital symmetries:
       Occupied  (A') (A') (A') (A') (A")
       Virtual   (A') (A') (A') (A") (A') (A') (A') (A') (A") (A')
                 (A") (A') (A') (A') (A') (A') (A') (A") (A") (A')
                 (A') (A") (A") (A') (A") (A') (A') (A') (A') (A")
                 (A') (A') (A") (A') (A") (A") (A') (A') (A') (A')
                 (A') (A") (A") (A') (A') (A") (A') (A') (A') (A")
                 (A') (A") (A') (A') (A') (A") (A") (A') (A') (A")
                 (A") (A') (A") (A') (A') (A') (A') (A") (A') (A')
                 (A") (A') (A') (A') (A") (A') (A") (A') (A") (A")
                 (A") (A') (A') (A') (A') (A') (A')
 The electronic state of the initial guess is 1-A'.
 Leave Link  401 at Wed Feb  8 13:54:28 2023, MaxMem=   754974720 cpu:               0.6 elap:               0.2
 (Enter /opt/cluster/programs/g16-c.01/g16/l502.exe)
 Keep R1 ints in memory in symmetry-blocked form, NReq=13818732.
 FoFCou: FMM=F IPFlag=           0 FMFlag=           0 FMFlg1=           0
         NFxFlg=           0 DoJE=F BraDBF=F KetDBF=F FulRan=T
         wScrn=  0.000000 ICntrl=       600 IOpCl=  0 I1Cent=           0 NGrid=           0
         NMat0=    1 NMatS0=   4278 NMatT0=    0 NMatD0=    1 NMtDS0=    0 NMtDT0=    0
 Petite list used in FoFCou.
 Closed shell SCF:
 Using DIIS extrapolation, IDIIS=  1040.
 NGot=   754974720 LenX=   750285684 LenY=   750274218
 Requested convergence on RMS density matrix=1.00D-08 within 200 cycles.
 Requested convergence on MAX density matrix=1.00D-06.
 Requested convergence on             energy=1.00D-06.
 No special actions if energy rises.

 Cycle   1  Pass 1  IDiag  1:
 E= -75.9641507895842    
 DIIS: error= 6.02D-02 at cycle   1 NSaved=   1.
 NSaved= 1 IEnMin= 1 EnMin= -75.9641507895842     IErMin= 1 ErrMin= 6.02D-02
 ErrMax= 6.02D-02  0.00D+00 EMaxC= 1.00D-01 BMatC= 2.02D-01 BMatP= 2.02D-01
 IDIUse=3 WtCom= 3.98D-01 WtEn= 6.02D-01
 Coeff-Com:  0.100D+01
 Coeff-En:   0.100D+01
 Coeff:      0.100D+01
 Gap=     0.451 Goal=   None    Shift=    0.000
 GapD=    0.451 DampG=2.000 DampE=0.500 DampFc=1.0000 IDamp=-1.
 RMSDP=2.15D-03 MaxDP=4.84D-02              OVMax= 1.25D-01

 Cycle   2  Pass 1  IDiag  1:
 E= -76.0149520407110     Delta-E=       -0.050801251127 Rises=F Damp=F
 DIIS: error= 4.08D-02 at cycle   2 NSaved=   2.
 NSaved= 2 IEnMin= 2 EnMin= -76.0149520407110     IErMin= 2 ErrMin= 4.08D-02
 ErrMax= 4.08D-02  0.00D+00 EMaxC= 1.00D-01 BMatC= 6.11D-02 BMatP= 2.02D-01
 IDIUse=3 WtCom= 5.92D-01 WtEn= 4.08D-01
 Coeff-Com:  0.328D+00 0.672D+00
 Coeff-En:   0.217D+00 0.783D+00
 Coeff:      0.282D+00 0.718D+00
 Gap=     0.561 Goal=   None    Shift=    0.000
 RMSDP=1.30D-03 MaxDP=3.21D-02 DE=-5.08D-02 OVMax= 6.65D-02

 Cycle   3  Pass 1  IDiag  1:
 E= -76.0512919648509     Delta-E=       -0.036339924140 Rises=F Damp=F
 DIIS: error= 8.50D-03 at cycle   3 NSaved=   3.
 NSaved= 3 IEnMin= 3 EnMin= -76.0512919648509     IErMin= 3 ErrMin= 8.50D-03
 ErrMax= 8.50D-03  0.00D+00 EMaxC= 1.00D-01 BMatC= 2.94D-03 BMatP= 6.11D-02
 IDIUse=3 WtCom= 9.15D-01 WtEn= 8.50D-02
 Coeff-Com: -0.310D-01 0.149D+00 0.882D+00
 Coeff-En:   0.000D+00 0.000D+00 0.100D+01
 Coeff:     -0.284D-01 0.136D+00 0.892D+00
 Gap=     0.531 Goal=   None    Shift=    0.000
 RMSDP=2.22D-04 MaxDP=4.31D-03 DE=-3.63D-02 OVMax= 1.29D-02

 Cycle   4  Pass 1  IDiag  1:
 E= -76.0531440016818     Delta-E=       -0.001852036831 Rises=F Damp=F
 DIIS: error= 7.15D-04 at cycle   4 NSaved=   4.
 NSaved= 4 IEnMin= 4 EnMin= -76.0531440016818     IErMin= 4 ErrMin= 7.15D-04
 ErrMax= 7.15D-04  0.00D+00 EMaxC= 1.00D-01 BMatC= 1.63D-05 BMatP= 2.94D-03
 IDIUse=3 WtCom= 9.93D-01 WtEn= 7.15D-03
 Coeff-Com:  0.647D-02-0.540D-01-0.231D+00 0.128D+01
 Coeff-En:   0.000D+00 0.000D+00 0.000D+00 0.100D+01
 Coeff:      0.642D-02-0.536D-01-0.229D+00 0.128D+01
 Gap=     0.533 Goal=   None    Shift=    0.000
 RMSDP=4.14D-05 MaxDP=7.59D-04 DE=-1.85D-03 OVMax= 2.58D-03

 Cycle   5  Pass 1  IDiag  1:
 E= -76.0531723271583     Delta-E=       -0.000028325476 Rises=F Damp=F
 DIIS: error= 2.05D-04 at cycle   5 NSaved=   5.
 NSaved= 5 IEnMin= 5 EnMin= -76.0531723271583     IErMin= 5 ErrMin= 2.05D-04
 ErrMax= 2.05D-04  0.00D+00 EMaxC= 1.00D-01 BMatC= 8.73D-07 BMatP= 1.63D-05
 IDIUse=3 WtCom= 9.98D-01 WtEn= 2.05D-03
 Coeff-Com:  0.687D-03-0.393D-04-0.589D-02-0.263D+00 0.127D+01
 Coeff-En:   0.000D+00 0.000D+00 0.000D+00 0.000D+00 0.100D+01
 Coeff:      0.686D-03-0.393D-04-0.588D-02-0.263D+00 0.127D+01
 Gap=     0.534 Goal=   None    Shift=    0.000
 RMSDP=1.37D-05 MaxDP=2.60D-04 DE=-2.83D-05 OVMax= 9.30D-04

 Cycle   6  Pass 1  IDiag  1:
 E= -76.0531746674887     Delta-E=       -0.000002340330 Rises=F Damp=F
 DIIS: error= 3.45D-05 at cycle   6 NSaved=   6.
 NSaved= 6 IEnMin= 6 EnMin= -76.0531746674887     IErMin= 6 ErrMin= 3.45D-05
 ErrMax= 3.45D-05  0.00D+00 EMaxC= 1.00D-01 BMatC= 2.81D-08 BMatP= 8.73D-07
 IDIUse=1 WtCom= 1.00D+00 WtEn= 0.00D+00
 Coeff-Com: -0.352D-03 0.184D-02 0.859D-02 0.805D-02-0.305D+00 0.129D+01
 Coeff:     -0.352D-03 0.184D-02 0.859D-02 0.805D-02-0.305D+00 0.129D+01
 Gap=     0.534 Goal=   None    Shift=    0.000
 RMSDP=2.99D-06 MaxDP=6.98D-05 DE=-2.34D-06 OVMax= 2.16D-04

 Cycle   7  Pass 1  IDiag  1:
 E= -76.0531747608258     Delta-E=       -0.000000093337 Rises=F Damp=F
 DIIS: error= 6.27D-06 at cycle   7 NSaved=   7.
 NSaved= 7 IEnMin= 7 EnMin= -76.0531747608258     IErMin= 7 ErrMin= 6.27D-06
 ErrMax= 6.27D-06  0.00D+00 EMaxC= 1.00D-01 BMatC= 1.54D-09 BMatP= 2.81D-08
 IDIUse=1 WtCom= 1.00D+00 WtEn= 0.00D+00
 Coeff-Com:  0.375D-04-0.416D-03-0.182D-02 0.164D-01-0.121D-01-0.236D+00
 Coeff-Com:  0.123D+01
 Coeff:      0.375D-04-0.416D-03-0.182D-02 0.164D-01-0.121D-01-0.236D+00
 Coeff:      0.123D+01
 Gap=     0.534 Goal=   None    Shift=    0.000
 RMSDP=4.53D-07 MaxDP=1.19D-05 DE=-9.33D-08 OVMax= 4.26D-05

 Cycle   8  Pass 1  IDiag  1:
 E= -76.0531747645966     Delta-E=       -0.000000003771 Rises=F Damp=F
 DIIS: error= 1.86D-06 at cycle   8 NSaved=   8.
 NSaved= 8 IEnMin= 8 EnMin= -76.0531747645966     IErMin= 8 ErrMin= 1.86D-06
 ErrMax= 1.86D-06  0.00D+00 EMaxC= 1.00D-01 BMatC= 8.98D-11 BMatP= 1.54D-09
 IDIUse=1 WtCom= 1.00D+00 WtEn= 0.00D+00
 Coeff-Com:  0.968D-05 0.104D-04 0.933D-04-0.559D-02 0.210D-01 0.696D-04
 Coeff-Com: -0.393D+00 0.138D+01
 Coeff:      0.968D-05 0.104D-04 0.933D-04-0.559D-02 0.210D-01 0.696D-04
 Coeff:     -0.393D+00 0.138D+01
 Gap=     0.534 Goal=   None    Shift=    0.000
 RMSDP=1.42D-07 MaxDP=3.28D-06 DE=-3.77D-09 OVMax= 9.98D-06

 Cycle   9  Pass 1  IDiag  1:
 E= -76.0531747648237     Delta-E=       -0.000000000227 Rises=F Damp=F
 DIIS: error= 2.12D-07 at cycle   9 NSaved=   9.
 NSaved= 9 IEnMin= 9 EnMin= -76.0531747648237     IErMin= 9 ErrMin= 2.12D-07
 ErrMax= 2.12D-07  0.00D+00 EMaxC= 1.00D-01 BMatC= 1.05D-12 BMatP= 8.98D-11
 IDIUse=1 WtCom= 1.00D+00 WtEn= 0.00D+00
 Coeff-Com: -0.189D-05 0.576D-05 0.145D-04 0.441D-03-0.224D-02 0.285D-02
 Coeff-Com:  0.402D-01-0.226D+00 0.118D+01
 Coeff:     -0.189D-05 0.576D-05 0.145D-04 0.441D-03-0.224D-02 0.285D-02
 Coeff:      0.402D-01-0.226D+00 0.118D+01
 Gap=     0.534 Goal=   None    Shift=    0.000
 RMSDP=1.90D-08 MaxDP=3.92D-07 DE=-2.27D-10 OVMax= 8.21D-07

 Cycle  10  Pass 1  IDiag  1:
 E= -76.0531747648260     Delta-E=       -0.000000000002 Rises=F Damp=F
 DIIS: error= 4.14D-08 at cycle  10 NSaved=  10.
 NSaved=10 IEnMin=10 EnMin= -76.0531747648260     IErMin=10 ErrMin= 4.14D-08
 ErrMax= 4.14D-08  0.00D+00 EMaxC= 1.00D-01 BMatC= 5.19D-14 BMatP= 1.05D-12
 IDIUse=1 WtCom= 1.00D+00 WtEn= 0.00D+00
 Coeff-Com: -0.740D-07-0.113D-05-0.542D-05 0.125D-03-0.330D-03-0.678D-03
 Coeff-Com:  0.101D-01-0.238D-01-0.150D+00 0.116D+01
 Coeff:     -0.740D-07-0.113D-05-0.542D-05 0.125D-03-0.330D-03-0.678D-03
 Coeff:      0.101D-01-0.238D-01-0.150D+00 0.116D+01
 Gap=     0.534 Goal=   None    Shift=    0.000
 RMSDP=4.36D-09 MaxDP=8.11D-08 DE=-2.29D-12 OVMax= 1.65D-07

 SCF Done:  E(RHF) =  -76.0531747648     A.U. after   10 cycles
            NFock= 10  Conv=0.44D-08     -V/T= 2.0028
 KE= 7.583959387896D+01 PE=-1.984310827671D+02 EE= 3.761199148568D+01
 Leave Link  502 at Wed Feb  8 13:54:31 2023, MaxMem=   754974720 cpu:               8.3 elap:               2.9
 (Enter /opt/cluster/programs/g16-c.01/g16/l801.exe)
 Windowed orbitals will be sorted by symmetry type.
 ExpMin= 2.53D-02 ExpMax= 1.53D+04 ExpMxC= 5.22D+02 IAcc=3 IRadAn=         5 AccDes= 0.00D+00
 HarFok:  IExCor=  205 AccDes= 0.00D+00 IRadAn=         5 IDoV=-2 UseB2=F ITyADJ=14
 ICtDFT= 12500011 ScaDFX=  1.000000  1.000000  1.000000  1.000000
 Largest valence mixing into a core orbital is  1.11D-04
 Largest core mixing into a valence orbital is  1.79D-05
 Range of M.O.s used for correlation:     2    92
 NBasis=    92 NAE=     5 NBE=     5 NFC=     1 NFV=     0
 NROrb=     91 NOA=     4 NOB=     4 NVA=    87 NVB=    87

 **** Warning!!: The largest alpha MO coefficient is  0.15124159D+02

 Leave Link  801 at Wed Feb  8 13:54:31 2023, MaxMem=   754974720 cpu:               0.4 elap:               0.2
 (Enter /opt/cluster/programs/g16-c.01/g16/l804.exe)
 Closed-shell transformation, MDV=   754974720 ITran=4 ISComp=2.
 Unit  1 TFree=        277501 TCopy=        343607.
 Semi-Direct transformation.
 ModeAB=           2 MOrb=             4 LenV=     754586778
 LASXX=       736380 LTotXX=      736380 LenRXX=      736380
 LTotAB=      763744 MaxLAS=     2025660 LenRXY=     2025660
 NonZer=     2107560 LenScr=     3929600 LnRSAI=           0
 LnScr1=           0 LExtra=           0 Total=      6691640
 MaxDsk=          -1 SrtSym=           F ITran=            4
 DoSDTr:  NPSUse=  4
 JobTyp=0 Pass  1:  I=   1 to   4.
 (rs|ai) integrals will be sorted in core.
 Complete sort for first half transformation.
 First half transformation complete.
 Complete sort for second half transformation.
 Second half transformation complete.
 Spin components of T(2) and E(2):
     alpha-alpha T2 =       0.8306081622D-02 E2=     -0.3276426574D-01
     alpha-beta  T2 =       0.4839146888D-01 E2=     -0.2043793273D+00
     beta-beta   T2 =       0.8306081622D-02 E2=     -0.3276426574D-01
 ANorm=    0.1031990132D+01
 E2 =    -0.2699078588D+00 EUMP2 =    -0.76323082623632D+02
 Leave Link  804 at Wed Feb  8 13:54:32 2023, MaxMem=   754974720 cpu:               2.4 elap:               0.6
 (Enter /opt/cluster/programs/g16-c.01/g16/l913.exe)
 CIDS:  MDV=   754974720.
 Frozen-core window:  NFC=   1 NFV=   0.
 IFCWin=0 IBDFC=1 NFBD=     0     0 NFCmp=     0     0 NFFFC=     0     0
 Using DD3R+UMP44R for 1st iteration.
 Using DD4RQ for 2nd and later iterations.
 Keep R2 and R3 ints in memory in symmetry-blocked form, NReq=13979827.
 FoFCou: FMM=F IPFlag=           0 FMFlag=           0 FMFlg1=           0
         NFxFlg=           0 DoJE=F BraDBF=F KetDBF=F FulRan=T
         wScrn=  0.000000 ICntrl=       600 IOpCl=  0 I1Cent=           0 NGrid=           0
         NMat0=    1 NMatS0=   4278 NMatT0=    0 NMatD0=    1 NMtDS0=    0 NMtDT0=    0
 Petite list used in FoFCou.
 CIDS: In Core Option IDoMem=           1.
 CCSD(T)
 =======
 Iterations=  50 Convergence= 0.100D-06
 Produce multiple copies of IABC intergrals
 Iteration Nr.   1
 **********************
 DD1Dir will call FoFMem   1 times, MxPair=        20
 NAB=    10 NAA=     0 NBB=     0.
 MP4(R+Q)=  0.41261104D-02
 Maximum subspace dimension=  5
 A-vector RMS=  2.9471804D-03 Max=  1.2843016D-02 conv= 1.00D-05.
 RLE energy=       -0.2680080965
 E3=       -0.22560418D-02        EUMP3=      -0.76325338665D+02
 E4(DQ)=   -0.76887610D-03        UMP4(DQ)=   -0.76326107541D+02
 E4(SDQ)=  -0.27405270D-02        UMP4(SDQ)=  -0.76328079192D+02
 VARIATIONAL ENERGIES WITH THE FIRST-ORDER WAVEFUNCTION:
 DE(Corr)= -0.26799464     E(Corr)=     -76.321169402    
 NORM(A)=   0.10317402D+01
 Iteration Nr.   2
 **********************
 DD1Dir will call FoFMem   1 times, MxPair=        20
 NAB=    10 NAA=     0 NBB=     0.
 A-vector RMS=  3.2532614D-04 Max=  2.3155520D-03 conv= 1.00D-05.
 RLE energy=       -0.2740196909
 DE(Corr)= -0.27361868     E(CORR)=     -76.326793447     Delta=-5.62D-03
 NORM(A)=   0.10339902D+01
 Iteration Nr.   3
 **********************
 DD1Dir will call FoFMem   1 times, MxPair=        20
 NAB=    10 NAA=     0 NBB=     0.
 A-vector RMS=  4.2226814D-04 Max=  2.3974162D-03 conv= 1.00D-05.
 RLE energy=       -0.2743548222
 DE(Corr)= -0.27395388     E(CORR)=     -76.327128641     Delta=-3.35D-04
 NORM(A)=   0.10344453D+01
 Iteration Nr.   4
 **********************
 DD1Dir will call FoFMem   1 times, MxPair=        20
 NAB=    10 NAA=     0 NBB=     0.
 A-vector RMS=  6.6886208D-05 Max=  4.0742570D-04 conv= 1.00D-05.
 RLE energy=       -0.2743907048
 DE(Corr)= -0.27436014     E(CORR)=     -76.327534904     Delta=-4.06D-04
 NORM(A)=   0.10345672D+01
 Iteration Nr.   5
 **********************
 DD1Dir will call FoFMem   1 times, MxPair=        20
 NAB=    10 NAA=     0 NBB=     0.
 A-vector RMS=  3.3396291D-05 Max=  2.0252109D-04 conv= 1.00D-05.
 RLE energy=       -0.2744041832
 DE(Corr)= -0.27439813     E(CORR)=     -76.327572899     Delta=-3.80D-05
 NORM(A)=   0.10345926D+01
 Iteration Nr.   6
 **********************
 DD1Dir will call FoFMem   1 times, MxPair=        20
 NAB=    10 NAA=     0 NBB=     0.
 A-vector RMS=  8.1002071D-06 Max=  3.9910872D-05 conv= 1.00D-05.
 RLE energy=       -0.2744001052
 DE(Corr)= -0.27440126     E(CORR)=     -76.327576024     Delta=-3.12D-06
 NORM(A)=   0.10345948D+01
 Iteration Nr.   7
 **********************
 DD1Dir will call FoFMem   1 times, MxPair=        20
 NAB=    10 NAA=     0 NBB=     0.
 A-vector RMS=  3.3131367D-06 Max=  1.8747902D-05 conv= 1.00D-05.
 RLE energy=       -0.2744002246
 DE(Corr)= -0.27440130     E(CORR)=     -76.327576060     Delta=-3.62D-08
 NORM(A)=   0.10345955D+01
 Iteration Nr.   8
 **********************
 DD1Dir will call FoFMem   1 times, MxPair=        20
 NAB=    10 NAA=     0 NBB=     0.
 A-vector RMS=  1.2373141D-06 Max=  6.2596559D-06 conv= 1.00D-05.
 RLE energy=       -0.2744008469
 DE(Corr)= -0.27440099     E(CORR)=     -76.327575758     Delta= 3.02D-07
 NORM(A)=   0.10345959D+01
 Iteration Nr.   9
 **********************
 DD1Dir will call FoFMem   1 times, MxPair=        20
 NAB=    10 NAA=     0 NBB=     0.
 A-vector RMS=  4.1795354D-07 Max=  2.4203021D-06 conv= 1.00D-05.
 RLE energy=       -0.2744009980
 DE(Corr)= -0.27440102     E(CORR)=     -76.327575784     Delta=-2.58D-08
 NORM(A)=   0.10345961D+01
 CI/CC converged in    9 iterations to DelEn=-2.58D-08 Conv= 1.00D-07 ErrA1= 4.18D-07 Conv= 1.00D-05
 Wavefunction amplitudes converged. E(Corr)=     -76.327575784    
 Largest amplitude= 2.04D-02
 IPart=  2 IA=    6   11.23% done.
 IPart=  3 IA=   11   21.79% done.
 IPart=  1 IA=   16   31.68% done.
 IPart=  4 IA=   21   40.90% done.
 IPart=  1 IA=   27   51.08% done.
 IPart=  4 IA=   33   60.30% done.
 IPart=  2 IA=   41   71.10% done.
 IPart=  2 IA=   49   80.19% done.
 IPart=  1 IA=   61   90.62% done.
 Time for triples=        6.44 seconds.
 T4(CCSD)= -0.91932532D-02
 T5(CCSD)=  0.33846397D-03
 CCSD(T)= -0.76336430573D+02
 Discarding MO integrals.
 Leave Link  913 at Wed Feb  8 13:54:35 2023, MaxMem=   754974720 cpu:              12.8 elap:               3.2
 (Enter /opt/cluster/programs/g16-c.01/g16/l601.exe)
 Copying SCF densities to generalized density rwf, IOpCl= 0 IROHF=0.

 **********************************************************************

            Population analysis using the SCF Density.

 **********************************************************************

 Orbital symmetries:
       Occupied  (A') (A') (A') (A') (A")
       Virtual   (A') (A') (A') (A") (A') (A') (A') (A') (A") (A")
                 (A') (A') (A') (A') (A') (A') (A') (A") (A") (A')
                 (A") (A') (A') (A") (A') (A") (A') (A') (A') (A")
                 (A') (A") (A') (A') (A") (A") (A') (A') (A') (A')
                 (A') (A") (A') (A") (A") (A') (A') (A') (A") (A')
                 (A') (A") (A') (A') (A') (A") (A") (A') (A') (A")
                 (A") (A") (A') (A') (A') (A') (A') (A") (A') (A')
                 (A") (A') (A') (A') (A") (A') (A") (A") (A') (A")
                 (A") (A') (A') (A') (A') (A') (A')
 The electronic state is 1-A'.
 Alpha  occ. eigenvalues --  -20.56571  -1.33299  -0.72362  -0.55709  -0.50435
 Alpha virt. eigenvalues --    0.02968   0.04685   0.13722   0.15788   0.17028
 Alpha virt. eigenvalues --    0.18035   0.22918   0.24195   0.26063   0.31249
 Alpha virt. eigenvalues --    0.31881   0.36363   0.42840   0.46327   0.60645
 Alpha virt. eigenvalues --    0.64278   0.71394   0.71401   0.72754   0.81470
 Alpha virt. eigenvalues --    0.84104   0.89447   0.90413   0.91145   0.92661
 Alpha virt. eigenvalues --    0.93924   0.98848   1.01268   1.04090   1.08454
 Alpha virt. eigenvalues --    1.12265   1.15520   1.15712   1.27730   1.51855
 Alpha virt. eigenvalues --    1.59987   1.61384   1.68351   1.79905   1.98825
 Alpha virt. eigenvalues --    2.10275   2.24679   2.30891   2.31823   2.37981
 Alpha virt. eigenvalues --    2.38318   2.42415   2.47823   2.73005   2.73083
 Alpha virt. eigenvalues --    2.74790   2.85443   2.93637   3.56432   3.75615
 Alpha virt. eigenvalues --    3.98839   4.06419   4.15809   4.21709   4.32957
 Alpha virt. eigenvalues --    4.38407   4.39011   4.41351   4.54907   4.60504
 Alpha virt. eigenvalues --    4.66343   5.03334   5.12195   5.23655   5.35663
 Alpha virt. eigenvalues --    5.42350   5.75136   5.96708   6.58297   6.68592
 Alpha virt. eigenvalues --    6.75158   7.12409   7.18331   7.22828   7.26643
 Alpha virt. eigenvalues --    7.37530   7.46125   7.51721   7.72417   7.97743
 Alpha virt. eigenvalues --    8.58543  15.22979
          Condensed to atoms (all electrons):
               1          2          3
     1  O    7.941226   0.271571   0.269950
     2  H    0.271571   0.484761   0.021470
     3  H    0.269950   0.021470   0.448029
 Mulliken charges:
               1
     1  O   -0.482748
     2  H    0.222197
     3  H    0.260550
 Sum of Mulliken charges =  -0.00000
 Mulliken charges with hydrogens summed into heavy atoms:
               1
     1  O   -0.000000
 Electronic spatial extent (au):  <R**2>=             19.8505
 Charge=             -0.0000 electrons
 Dipole moment (field-independent basis, Debye):
    X=              0.0130    Y=             -1.7923    Z=              0.0000  Tot=              1.7924
 Quadrupole moment (field-independent basis, Debye-Ang):
   XX=             -3.6466   YY=             -6.6186   ZZ=             -7.6437
   XY=              0.1907   XZ=              0.0000   YZ=              0.0000
 Traceless Quadrupole moment (field-independent basis, Debye-Ang):
   XX=              2.3230   YY=             -0.6490   ZZ=             -1.6741
   XY=              0.1907   XZ=              0.0000   YZ=              0.0000
 Octapole moment (field-independent basis, Debye-Ang**2):
  XXX=              0.0545  YYY=             -0.8912  ZZZ=              0.0000  XYY=             -0.1194
  XXY=             -1.4806  XXZ=              0.0000  XZZ=              0.0252  YZZ=             -0.2112
  YYZ=              0.0000  XYZ=              0.0000
 Hexadecapole moment (field-independent basis, Debye-Ang**3):
 XXXX=             -5.6380 YYYY=             -7.4199 ZZZZ=             -6.8939 XXXY=              0.0480
 XXXZ=              0.0000 YYYX=             -0.0045 YYYZ=              0.0000 ZZZX=              0.0000
 ZZZY=              0.0000 XXYY=             -2.0096 XXZZ=             -2.5867 YYZZ=             -2.4169
 XXYZ=              0.0000 YYXZ=              0.0000 ZZXY=             -0.0395
 N-N= 8.926322637592D+00 E-N=-1.984310825148D+02  KE= 7.583959387896D+01
 Symmetry A'   KE= 7.138431247614D+01
 Symmetry A"   KE= 4.455281402816D+00
 Leave Link  601 at Wed Feb  8 13:54:35 2023, MaxMem=   754974720 cpu:               0.7 elap:               0.4
 (Enter /opt/cluster/programs/g16-c.01/g16/l9999.exe)
 Unable to Open any file for archive entry.
 1\1\GINC-NODE66\SP\RCCSD(T)-FC\Aug-CC-pVTZ\H2O1\BOITTIER\08-Feb-2023\0
 \\#P CCSD(T)/aug-cc-pVTZ scf(maxcycle=200)\\Gaussian input\\0,1\O,0,0.
 ,0.11751,0.\H,0,0.7578497316,-0.4701504329,0.\H,0,-0.9087365837,-0.320
 9860905,0.\\Version=ES64L-G16RevC.01\State=1-A'\HF=-76.0531748\MP2=-76
 .3230826\MP3=-76.3253387\MP4D=-76.3302337\MP4DQ=-76.3261075\MP4SDQ=-76
 .3280792\CCSD=-76.3275758\CCSD(T)=-76.3364306\RMSD=4.364e-09\PG=CS [SG
 (H2O1)]\\@
 The archive entry for this job was punched.


 WE SHOULD BE CAREFUL TO GET OUT OF AN EXPERIENCE ONLY THE WISDOM
 THAT IS IN IT -- AND STOP THERE;
 LEST WE BE LIKE THE CAT THAT SITS DOWN ON A HOT STOVE-LID.
 SHE WILL NEVER SIT DOWN ON A HOT STOVE LID AGAIN;
 BUT ALSO SHE WILL NEVER SIT DOWN ON A COLD ONE ANY MORE.

                                                     -- MARK TWAIN
 Job cpu time:       0 days  0 hours  0 minutes 28.0 seconds.
 Elapsed time:       0 days  0 hours  0 minutes  8.5 seconds.
 File lengths (MBytes):  RWF=     75 Int=      0 D2E=      0 Chk=      2 Scr=      1
 Normal termination of Gaussian 16 at Wed Feb  8 13:54:35 2023.
