 Entering Gaussian System, Link 0=/opt/cluster/programs/g16-c.01/g16/g16
 Input=/scratch/boittier/jobs/tmp.7261946/gaussian_9_water_wb97_ptz.com
 Output=/scratch/boittier/jobs/tmp.7261946/gaussian_9_water_wb97_ptz.out
 Initial command:
 /opt/cluster/programs/g16-c.01/g16/l1.exe "/scratch/boittier/jobs/tmp.7261946/Gau-138235.inp" -scrdir="/scratch/boittier/jobs/tmp.7261946/"
 Entering Link 1 = /opt/cluster/programs/g16-c.01/g16/l1.exe PID=    138236.
  
 Copyright (c) 1988-2019, Gaussian, Inc.  All Rights Reserved.
  
 This is part of the Gaussian(R) 16 program.  It is based on
 the Gaussian(R) 09 system (copyright 2009, Gaussian, Inc.),
 the Gaussian(R) 03 system (copyright 2003, Gaussian, Inc.),
 the Gaussian(R) 98 system (copyright 1998, Gaussian, Inc.),
 the Gaussian(R) 94 system (copyright 1995, Gaussian, Inc.),
 the Gaussian 92(TM) system (copyright 1992, Gaussian, Inc.),
 the Gaussian 90(TM) system (copyright 1990, Gaussian, Inc.),
 the Gaussian 88(TM) system (copyright 1988, Gaussian, Inc.),
 the Gaussian 86(TM) system (copyright 1986, Carnegie Mellon
 University), and the Gaussian 82(TM) system (copyright 1983,
 Carnegie Mellon University). Gaussian is a federally registered
 trademark of Gaussian, Inc.
  
 This software contains proprietary and confidential information,
 including trade secrets, belonging to Gaussian, Inc.
  
 This software is provided under written license and may be
 used, copied, transmitted, or stored only in accord with that
 written license.
  
 The following legend is applicable only to US Government
 contracts under FAR:
  
                    RESTRICTED RIGHTS LEGEND
  
 Use, reproduction and disclosure by the US Government is
 subject to restrictions as set forth in subparagraphs (a)
 and (c) of the Commercial Computer Software - Restricted
 Rights clause in FAR 52.227-19.
  
 Gaussian, Inc.
 340 Quinnipiac St., Bldg. 40, Wallingford CT 06492
  
  
 ---------------------------------------------------------------
 Warning -- This program may not be used in any manner that
 competes with the business of Gaussian, Inc. or will provide
 assistance to any competitor of Gaussian, Inc.  The licensee
 of this program is prohibited from giving any competitor of
 Gaussian, Inc. access to this program.  By using this program,
 the user acknowledges that Gaussian, Inc. is engaged in the
 business of creating and licensing software in the field of
 computational chemistry and represents and warrants to the
 licensee that it is not a competitor of Gaussian, Inc. and that
 it will not use this program in any manner prohibited above.
 ---------------------------------------------------------------
  

 Cite this work as:
 Gaussian 16, Revision C.01,
 M. J. Frisch, G. W. Trucks, H. B. Schlegel, G. E. Scuseria, 
 M. A. Robb, J. R. Cheeseman, G. Scalmani, V. Barone, 
 G. A. Petersson, H. Nakatsuji, X. Li, M. Caricato, A. V. Marenich, 
 J. Bloino, B. G. Janesko, R. Gomperts, B. Mennucci, H. P. Hratchian, 
 J. V. Ortiz, A. F. Izmaylov, J. L. Sonnenberg, D. Williams-Young, 
 F. Ding, F. Lipparini, F. Egidi, J. Goings, B. Peng, A. Petrone, 
 T. Henderson, D. Ranasinghe, V. G. Zakrzewski, J. Gao, N. Rega, 
 G. Zheng, W. Liang, M. Hada, M. Ehara, K. Toyota, R. Fukuda, 
 J. Hasegawa, M. Ishida, T. Nakajima, Y. Honda, O. Kitao, H. Nakai, 
 T. Vreven, K. Throssell, J. A. Montgomery, Jr., J. E. Peralta, 
 F. Ogliaro, M. J. Bearpark, J. J. Heyd, E. N. Brothers, K. N. Kudin, 
 V. N. Staroverov, T. A. Keith, R. Kobayashi, J. Normand, 
 K. Raghavachari, A. P. Rendell, J. C. Burant, S. S. Iyengar, 
 J. Tomasi, M. Cossi, J. M. Millam, M. Klene, C. Adamo, R. Cammi, 
 J. W. Ochterski, R. L. Martin, K. Morokuma, O. Farkas, 
 J. B. Foresman, and D. J. Fox, Gaussian, Inc., Wallingford CT, 2019.
 
 ******************************************
 Gaussian 16:  ES64L-G16RevC.01  3-Jul-2019
                 8-Feb-2023 
 ******************************************
 %nproc=4
 Will use up to    4 processors via shared memory.
 %mem=5760MB
 %chk=gaussian_9_water_wb97_ptz.chk
 ------------------------------------
 #P wB97XD/6-311g** scf(maxcycle=200)
 ------------------------------------
 1/38=1,172=1/1;
 2/12=2,17=6,18=5,40=1/2;
 3/5=4,6=6,7=101,11=2,25=1,30=1,74=-58/1,2,3;
 4//1;
 5/5=2,7=200,38=5/2;
 6/7=2,8=2,9=2,10=2,28=1/1;
 99/5=1,9=1/99;
 Leave Link    1 at Wed Feb  8 14:39:40 2023, MaxMem=   754974720 cpu:               0.1 elap:               0.0
 (Enter /opt/cluster/programs/g16-c.01/g16/l101.exe)
 --------------
 Gaussian input
 --------------
 Symbolic Z-matrix:
 Charge =  0 Multiplicity = 1
 O                     0.        0.11751   0. 
 H                     0.71834  -0.43951   0. 
 H                    -0.69879  -0.46385   0. 
 
 ITRead=  0  0  0
 MicOpt= -1 -1 -1
 NAtoms=      3 NQM=        3 NQMF=       0 NMMI=      0 NMMIF=      0
                NMic=       0 NMicF=      0.
                    Isotopes and Nuclear Properties:
 (Nuclear quadrupole moments (NQMom) in fm**2, nuclear magnetic moments (NMagM)
  in nuclear magnetons)

  Atom         1           2           3
 IAtWgt=          16           1           1
 AtmWgt=  15.9949146   1.0078250   1.0078250
 NucSpn=           0           1           1
 AtZEff=  -0.0000000  -0.0000000  -0.0000000
 NQMom=    0.0000000   0.0000000   0.0000000
 NMagM=    0.0000000   2.7928460   2.7928460
 AtZNuc=   8.0000000   1.0000000   1.0000000
 Leave Link  101 at Wed Feb  8 14:39:43 2023, MaxMem=   754974720 cpu:               1.1 elap:               0.7
 (Enter /opt/cluster/programs/g16-c.01/g16/l202.exe)
                          Input orientation:                          
 ---------------------------------------------------------------------
 Center     Atomic      Atomic             Coordinates (Angstroms)
 Number     Number       Type             X           Y           Z
 ---------------------------------------------------------------------
      1          8           0        0.000000    0.117510    0.000000
      2          1           0        0.718337   -0.439511    0.000000
      3          1           0       -0.698787   -0.463848    0.000000
 ---------------------------------------------------------------------
                    Distance matrix (angstroms):
                    1          2          3
     1  O    0.000000
     2  H    0.909000   0.000000
     3  H    0.909000   1.417333   0.000000
 Stoichiometry    H2O
 Framework group  C2V[C2(O),SGV(H2)]
 Deg. of freedom     2
 Full point group                 C2V     NOp   4
 Largest Abelian subgroup         C2V     NOp   4
 Largest concise Abelian subgroup C2      NOp   2
                         Standard orientation:                         
 ---------------------------------------------------------------------
 Center     Atomic      Atomic             Coordinates (Angstroms)
 Number     Number       Type             X           Y           Z
 ---------------------------------------------------------------------
      1          8           0        0.000000    0.000000    0.113855
      2          1           0       -0.000000    0.708667   -0.455419
      3          1           0       -0.000000   -0.708667   -0.455419
 ---------------------------------------------------------------------
 Rotational constants (GHZ):         871.1746246         499.2499680         317.3716422
 Leave Link  202 at Wed Feb  8 14:39:46 2023, MaxMem=   754974720 cpu:               0.3 elap:               0.2
 (Enter /opt/cluster/programs/g16-c.01/g16/l301.exe)
 Standard basis: 6-311G(d,p) (5D, 7F)
 Ernie: Thresh=  0.10000D-02 Tol=  0.10000D-05 Strict=F.
 There are    15 symmetry adapted cartesian basis functions of A1  symmetry.
 There are     2 symmetry adapted cartesian basis functions of A2  symmetry.
 There are     5 symmetry adapted cartesian basis functions of B1  symmetry.
 There are     9 symmetry adapted cartesian basis functions of B2  symmetry.
 There are    14 symmetry adapted basis functions of A1  symmetry.
 There are     2 symmetry adapted basis functions of A2  symmetry.
 There are     5 symmetry adapted basis functions of B1  symmetry.
 There are     9 symmetry adapted basis functions of B2  symmetry.
    30 basis functions,    48 primitive gaussians,    31 cartesian basis functions
     5 alpha electrons        5 beta electrons
       nuclear repulsion energy         9.6878115108 Hartrees.
 IExCor= 4639 DFT=T Ex+Corr=wB97XD ExCW=0 ScaHFX=  1.000000
 ScaDFX=  1.000000  1.000000  1.000000  1.000000 ScalE2=  1.000000  1.000000
 IRadAn=      5 IRanWt=     -1 IRanGd=            0 ICorTp=0 IEmpDi=121
 HFx  wShort=  0.000000 wLong=  0.200000 cFull=  0.222036 cShort=  0.000000 cLong=  0.777964
 DFx  wShort=  0.000000 wLong=  0.200000 cFull=  0.000000 cShort=  0.000000 cLong=  1.000000
 NAtoms=    3 NActive=    3 NUniq=    2 SFac= 2.25D+00 NAtFMM=   60 NAOKFM=F Big=F
 Integral buffers will be    131072 words long.
 Raffenetti 2 integral format.
 Two-electron integral symmetry is turned on.
 R6Disp:  Grimme-D2 Dispersion energy=       -0.0000181525 Hartrees.
 Nuclear repulsion after empirical dispersion term =        9.6877933583 Hartrees.
 Leave Link  301 at Wed Feb  8 14:39:51 2023, MaxMem=   754974720 cpu:               5.8 elap:               2.9
 (Enter /opt/cluster/programs/g16-c.01/g16/l302.exe)
 NPDir=0 NMtPBC=     1 NCelOv=     1 NCel=       1 NClECP=     1 NCelD=      1
         NCelK=      1 NCelE2=     1 NClLst=     1 CellRange=     0.0.
 One-electron integrals computed using PRISM.
 One-electron integral symmetry used in STVInt
 NBasis=    30 RedAO= T EigKep=  1.48D-02  NBF=    14     2     5     9
 NBsUse=    30 1.00D-06 EigRej= -1.00D+00 NBFU=    14     2     5     9
 Precomputing XC quadrature grid using
 IXCGrd= 4 IRadAn=           5 IRanWt=          -1 IRanGd=           0 AccXCQ= 0.00D+00.
 Generated NRdTot=       0 NPtTot=           0 NUsed=           0 NTot=          32
 NSgBfM=    31    31    31    31    31 MxSgAt=     3 MxSgA2=     3.
 Leave Link  302 at Wed Feb  8 14:39:52 2023, MaxMem=   754974720 cpu:               1.0 elap:               0.5
 (Enter /opt/cluster/programs/g16-c.01/g16/l303.exe)
 DipDrv:  MaxL=1.
 Leave Link  303 at Wed Feb  8 14:39:53 2023, MaxMem=   754974720 cpu:               0.6 elap:               0.2
 (Enter /opt/cluster/programs/g16-c.01/g16/l401.exe)
 ExpMin= 1.03D-01 ExpMax= 8.59D+03 ExpMxC= 1.30D+03 IAcc=3 IRadAn=         5 AccDes= 0.00D+00
 Harris functional with IExCor= 4639 and IRadAn=       5 diagonalized for initial guess.
 HarFok:  IExCor= 4639 AccDes= 0.00D+00 IRadAn=         5 IDoV= 1 UseB2=F ITyADJ=14
 ICtDFT=  3500011 ScaDFX=  1.000000  1.000000  1.000000  1.000000
 FoFCou: FMM=F IPFlag=           0 FMFlag=      100000 FMFlg1=           0
         NFxFlg=           0 DoJE=T BraDBF=F KetDBF=T FulRan=T
         wScrn=  0.000000 ICntrl=       500 IOpCl=  0 I1Cent=   200000004 NGrid=           0
         NMat0=    1 NMatS0=      1 NMatT0=    0 NMatD0=    1 NMtDS0=    0 NMtDT0=    0
 Petite list used in FoFCou.
 Harris En= -73.5974883520908    
 JPrj=0 DoOrth=F DoCkMO=F.
 Initial guess orbital symmetries:
       Occupied  (A1) (A1) (B2) (A1) (B1)
       Virtual   (A1) (B2) (B2) (A1) (A1) (B1) (B2) (A1) (A1) (A2)
                 (B1) (B2) (B2) (A1) (A1) (B2) (B1) (A2) (A1) (A1)
                 (B2) (B1) (A1) (B2) (A1)
 The electronic state of the initial guess is 1-A1.
 Leave Link  401 at Wed Feb  8 14:39:53 2023, MaxMem=   754974720 cpu:               1.3 elap:               0.6
 (Enter /opt/cluster/programs/g16-c.01/g16/l502.exe)
 Keep R1 ints in memory in symmetry-blocked form, NReq=3688799.
 FoFCou: FMM=F IPFlag=           0 FMFlag=           0 FMFlg1=           0
         NFxFlg=           0 DoJE=F BraDBF=F KetDBF=F FulRan=T
         wScrn=  0.000000 ICntrl=       600 IOpCl=  0 I1Cent=           0 NGrid=           0
         NMat0=    1 NMatS0=    465 NMatT0=    0 NMatD0=    1 NMtDS0=    0 NMtDT0=    0
 Petite list used in FoFCou.
 Closed shell SCF:
 Using DIIS extrapolation, IDIIS=  1040.
 NGot=   754974720 LenX=   754939916 LenY=   754938514
 Requested convergence on RMS density matrix=1.00D-08 within 200 cycles.
 Requested convergence on MAX density matrix=1.00D-06.
 Requested convergence on             energy=1.00D-06.
 No special actions if energy rises.
 Integral accuracy reduced to 1.0D-05 until final iterations.

 Cycle   1  Pass 0  IDiag  1:
 E= -76.4082258104787    
 DIIS: error= 7.84D-02 at cycle   1 NSaved=   1.
 NSaved= 1 IEnMin= 1 EnMin= -76.4082258104787     IErMin= 1 ErrMin= 7.84D-02
 ErrMax= 7.84D-02  0.00D+00 EMaxC= 1.00D-01 BMatC= 1.27D-01 BMatP= 1.27D-01
 IDIUse=3 WtCom= 2.16D-01 WtEn= 7.84D-01
 Coeff-Com:  0.100D+01
 Coeff-En:   0.100D+01
 Coeff:      0.100D+01
 Gap=     0.499 Goal=   None    Shift=    0.000
 GapD=    0.499 DampG=2.000 DampE=0.500 DampFc=1.0000 IDamp=-1.
 RMSDP=2.42D-03 MaxDP=1.86D-02              OVMax= 3.74D-02

 Cycle   2  Pass 0  IDiag  1:
 E= -76.4167419305399     Delta-E=       -0.008516120061 Rises=F Damp=F
 DIIS: error= 9.03D-03 at cycle   2 NSaved=   2.
 NSaved= 2 IEnMin= 2 EnMin= -76.4167419305399     IErMin= 2 ErrMin= 9.03D-03
 ErrMax= 9.03D-03  0.00D+00 EMaxC= 1.00D-01 BMatC= 1.97D-03 BMatP= 1.27D-01
 IDIUse=3 WtCom= 9.10D-01 WtEn= 9.03D-02
 Coeff-Com:  0.487D-01 0.951D+00
 Coeff-En:   0.000D+00 0.100D+01
 Coeff:      0.443D-01 0.956D+00
 Gap=     0.534 Goal=   None    Shift=    0.000
 RMSDP=1.27D-03 MaxDP=1.61D-02 DE=-8.52D-03 OVMax= 1.59D-02

 Cycle   3  Pass 0  IDiag  1:
 E= -76.4170359934736     Delta-E=       -0.000294062934 Rises=F Damp=F
 DIIS: error= 8.49D-03 at cycle   3 NSaved=   3.
 NSaved= 3 IEnMin= 3 EnMin= -76.4170359934736     IErMin= 3 ErrMin= 8.49D-03
 ErrMax= 8.49D-03  0.00D+00 EMaxC= 1.00D-01 BMatC= 1.53D-03 BMatP= 1.97D-03
 IDIUse=3 WtCom= 9.15D-01 WtEn= 8.49D-02
 Coeff-Com:  0.206D-01 0.470D+00 0.510D+00
 Coeff-En:   0.000D+00 0.425D+00 0.575D+00
 Coeff:      0.188D-01 0.466D+00 0.515D+00
 Gap=     0.519 Goal=   None    Shift=    0.000
 RMSDP=5.84D-04 MaxDP=7.05D-03 DE=-2.94D-04 OVMax= 7.84D-03

 Cycle   4  Pass 0  IDiag  1:
 E= -76.4179328111448     Delta-E=       -0.000896817671 Rises=F Damp=F
 DIIS: error= 4.34D-04 at cycle   4 NSaved=   4.
 NSaved= 4 IEnMin= 4 EnMin= -76.4179328111448     IErMin= 4 ErrMin= 4.34D-04
 ErrMax= 4.34D-04  0.00D+00 EMaxC= 1.00D-01 BMatC= 3.23D-06 BMatP= 1.53D-03
 IDIUse=3 WtCom= 9.96D-01 WtEn= 4.34D-03
 Coeff-Com:  0.148D-02 0.435D-01 0.728D-01 0.882D+00
 Coeff-En:   0.000D+00 0.000D+00 0.000D+00 0.100D+01
 Coeff:      0.147D-02 0.433D-01 0.725D-01 0.883D+00
 Gap=     0.519 Goal=   None    Shift=    0.000
 RMSDP=4.72D-05 MaxDP=5.14D-04 DE=-8.97D-04 OVMax= 4.62D-04

 Cycle   5  Pass 0  IDiag  1:
 E= -76.4179350592148     Delta-E=       -0.000002248070 Rises=F Damp=F
 DIIS: error= 5.31D-05 at cycle   5 NSaved=   5.
 NSaved= 5 IEnMin= 5 EnMin= -76.4179350592148     IErMin= 5 ErrMin= 5.31D-05
 ErrMax= 5.31D-05  0.00D+00 EMaxC= 1.00D-01 BMatC= 6.60D-08 BMatP= 3.23D-06
 IDIUse=1 WtCom= 1.00D+00 WtEn= 0.00D+00
 Coeff-Com: -0.709D-03-0.186D-01-0.191D-01-0.173D-01 0.106D+01
 Coeff:     -0.709D-03-0.186D-01-0.191D-01-0.173D-01 0.106D+01
 Gap=     0.520 Goal=   None    Shift=    0.000
 RMSDP=1.57D-05 MaxDP=1.64D-04 DE=-2.25D-06 OVMax= 2.71D-04

 Cycle   6  Pass 0  IDiag  1:
 E= -76.4179351924723     Delta-E=       -0.000000133258 Rises=F Damp=F
 DIIS: error= 1.03D-05 at cycle   6 NSaved=   6.
 NSaved= 6 IEnMin= 6 EnMin= -76.4179351924723     IErMin= 6 ErrMin= 1.03D-05
 ErrMax= 1.03D-05  0.00D+00 EMaxC= 1.00D-01 BMatC= 3.04D-09 BMatP= 6.60D-08
 IDIUse=1 WtCom= 1.00D+00 WtEn= 0.00D+00
 Coeff-Com:  0.135D-03 0.312D-02 0.381D-02-0.145D-01-0.232D+00 0.124D+01
 Coeff:      0.135D-03 0.312D-02 0.381D-02-0.145D-01-0.232D+00 0.124D+01
 Gap=     0.520 Goal=   None    Shift=    0.000
 RMSDP=4.43D-06 MaxDP=5.48D-05 DE=-1.33D-07 OVMax= 7.37D-05

 Initial convergence to 1.0D-05 achieved.  Increase integral accuracy.
 Cycle   7  Pass 1  IDiag  1:
 E= -76.4179364589853     Delta-E=       -0.000001266513 Rises=F Damp=F
 DIIS: error= 2.57D-05 at cycle   1 NSaved=   1.
 NSaved= 1 IEnMin= 1 EnMin= -76.4179364589853     IErMin= 1 ErrMin= 2.57D-05
 ErrMax= 2.57D-05  0.00D+00 EMaxC= 1.00D-01 BMatC= 1.31D-08 BMatP= 1.31D-08
 IDIUse=1 WtCom= 1.00D+00 WtEn= 0.00D+00
 Coeff-Com:  0.100D+01
 Coeff:      0.100D+01
 Gap=     0.520 Goal=   None    Shift=    0.000
 RMSDP=4.43D-06 MaxDP=5.48D-05 DE=-1.27D-06 OVMax= 2.72D-05

 Cycle   8  Pass 1  IDiag  1:
 E= -76.4179364674587     Delta-E=       -0.000000008473 Rises=F Damp=F
 DIIS: error= 5.11D-06 at cycle   2 NSaved=   2.
 NSaved= 2 IEnMin= 2 EnMin= -76.4179364674587     IErMin= 2 ErrMin= 5.11D-06
 ErrMax= 5.11D-06  0.00D+00 EMaxC= 1.00D-01 BMatC= 5.90D-10 BMatP= 1.31D-08
 IDIUse=1 WtCom= 1.00D+00 WtEn= 0.00D+00
 Coeff-Com:  0.775D-02 0.992D+00
 Coeff:      0.775D-02 0.992D+00
 Gap=     0.520 Goal=   None    Shift=    0.000
 RMSDP=7.94D-07 MaxDP=8.33D-06 DE=-8.47D-09 OVMax= 9.96D-06

 Cycle   9  Pass 1  IDiag  1:
 E= -76.4179364675565     Delta-E=       -0.000000000098 Rises=F Damp=F
 DIIS: error= 4.78D-06 at cycle   3 NSaved=   3.
 NSaved= 3 IEnMin= 3 EnMin= -76.4179364675565     IErMin= 3 ErrMin= 4.78D-06
 ErrMax= 4.78D-06  0.00D+00 EMaxC= 1.00D-01 BMatC= 5.21D-10 BMatP= 5.90D-10
 IDIUse=1 WtCom= 1.00D+00 WtEn= 0.00D+00
 Coeff-Com: -0.375D-01 0.502D+00 0.536D+00
 Coeff:     -0.375D-01 0.502D+00 0.536D+00
 Gap=     0.520 Goal=   None    Shift=    0.000
 RMSDP=3.37D-07 MaxDP=4.42D-06 DE=-9.78D-11 OVMax= 4.34D-06

 Cycle  10  Pass 1  IDiag  1:
 E= -76.4179364678644     Delta-E=       -0.000000000308 Rises=F Damp=F
 DIIS: error= 1.47D-07 at cycle   4 NSaved=   4.
 NSaved= 4 IEnMin= 4 EnMin= -76.4179364678644     IErMin= 4 ErrMin= 1.47D-07
 ErrMax= 1.47D-07  0.00D+00 EMaxC= 1.00D-01 BMatC= 5.24D-13 BMatP= 5.21D-10
 IDIUse=1 WtCom= 1.00D+00 WtEn= 0.00D+00
 Coeff-Com: -0.249D-02 0.665D-02 0.578D-02 0.990D+00
 Coeff:     -0.249D-02 0.665D-02 0.578D-02 0.990D+00
 Gap=     0.520 Goal=   None    Shift=    0.000
 RMSDP=3.61D-08 MaxDP=5.01D-07 DE=-3.08D-10 OVMax= 5.04D-07

 Cycle  11  Pass 1  IDiag  1:
 E= -76.4179364678649     Delta-E=       -0.000000000001 Rises=F Damp=F
 DIIS: error= 3.05D-08 at cycle   5 NSaved=   5.
 NSaved= 5 IEnMin= 5 EnMin= -76.4179364678649     IErMin= 5 ErrMin= 3.05D-08
 ErrMax= 3.05D-08  0.00D+00 EMaxC= 1.00D-01 BMatC= 2.63D-14 BMatP= 5.24D-13
 IDIUse=1 WtCom= 1.00D+00 WtEn= 0.00D+00
 Coeff-Com:  0.483D-03-0.951D-02-0.824D-02 0.674D-01 0.950D+00
 Coeff:      0.483D-03-0.951D-02-0.824D-02 0.674D-01 0.950D+00
 Gap=     0.520 Goal=   None    Shift=    0.000
 RMSDP=9.14D-09 MaxDP=1.05D-07 DE=-5.68D-13 OVMax= 1.66D-07

 SCF Done:  E(RwB97XD) =  -76.4179364679     A.U. after   11 cycles
            NFock= 11  Conv=0.91D-08     -V/T= 1.9989
 KE= 7.649900218153D+01 PE=-2.005965754291D+02 EE= 3.799184342143D+01
 Leave Link  502 at Wed Feb  8 14:39:58 2023, MaxMem=   754974720 cpu:               8.3 elap:               4.2
 (Enter /opt/cluster/programs/g16-c.01/g16/l601.exe)
 Copying SCF densities to generalized density rwf, IOpCl= 0 IROHF=0.

 **********************************************************************

            Population analysis using the SCF Density.

 **********************************************************************

 Orbital symmetries:
       Occupied  (A1) (A1) (B2) (A1) (B1)
       Virtual   (A1) (B2) (B2) (A1) (A1) (B1) (B2) (A1) (A1) (A2)
                 (B1) (B2) (B2) (A1) (A1) (B2) (B1) (A2) (A1) (A1)
                 (B2) (B1) (A1) (B2) (A1)
 The electronic state is 1-A1.
 Alpha  occ. eigenvalues --  -19.21823  -1.12783  -0.62635  -0.47121  -0.39121
 Alpha virt. eigenvalues --    0.12834   0.20217   0.48748   0.54540   0.84802
 Alpha virt. eigenvalues --    0.85370   0.96084   1.15071   1.29068   1.36912
 Alpha virt. eigenvalues --    1.54708   1.80334   2.07363   2.19694   2.41006
 Alpha virt. eigenvalues --    2.56860   3.25636   3.29248   3.47965   3.71981
 Alpha virt. eigenvalues --    3.99880   4.89189   5.37417   5.88904  50.05548
          Condensed to atoms (all electrons):
               1          2          3
     1  O    7.814895   0.329774   0.329774
     2  H    0.329774   0.466235  -0.033231
     3  H    0.329774  -0.033231   0.466235
 Mulliken charges:
               1
     1  O   -0.474443
     2  H    0.237222
     3  H    0.237222
 Sum of Mulliken charges =   0.00000
 Mulliken charges with hydrogens summed into heavy atoms:
               1
     1  O    0.000000
 Electronic spatial extent (au):  <R**2>=             18.3752
 Charge=              0.0000 electrons
 Dipole moment (field-independent basis, Debye):
    X=             -0.0000    Y=              0.0000    Z=             -2.0921  Tot=              2.0921
 Quadrupole moment (field-independent basis, Debye-Ang):
   XX=             -7.0570   YY=             -4.3880   ZZ=             -5.9553
   XY=              0.0000   XZ=              0.0000   YZ=             -0.0000
 Traceless Quadrupole moment (field-independent basis, Debye-Ang):
   XX=             -1.2569   YY=              1.4121   ZZ=             -0.1552
   XY=              0.0000   XZ=              0.0000   YZ=             -0.0000
 Octapole moment (field-independent basis, Debye-Ang**2):
  XXX=              0.0000  YYY=              0.0000  ZZZ=             -1.3340  XYY=             -0.0000
  XXY=              0.0000  XXZ=             -0.3727  XZZ=              0.0000  YZZ=              0.0000
  YYZ=             -1.1383  XYZ=             -0.0000
 Hexadecapole moment (field-independent basis, Debye-Ang**3):
 XXXX=             -5.1018 YYYY=             -5.5041 ZZZZ=             -5.9450 XXXY=             -0.0000
 XXXZ=             -0.0000 YYYX=             -0.0000 YYYZ=              0.0000 ZZZX=             -0.0000
 ZZZY=              0.0000 XXYY=             -1.9848 XXZZ=             -1.8902 YYZZ=             -1.6201
 XXYZ=              0.0000 YYXZ=              0.0000 ZZXY=             -0.0000
 N-N= 9.687793358285D+00 E-N=-2.005965753063D+02  KE= 7.649900218153D+01
 Symmetry A1   KE= 6.810129315515D+01
 Symmetry A2   KE= 1.064936642721D-35
 Symmetry B1   KE= 4.632476512295D+00
 Symmetry B2   KE= 3.765232514081D+00
 No NMR shielding tensors so no spin-rotation constants.
 Leave Link  601 at Wed Feb  8 14:39:58 2023, MaxMem=   754974720 cpu:               1.0 elap:               0.3
 (Enter /opt/cluster/programs/g16-c.01/g16/l9999.exe)
 Unable to Open any file for archive entry.
 1\1\GINC-NODE66\SP\RwB97XD\6-311G(d,p)\H2O1\BOITTIER\08-Feb-2023\0\\#P
  wB97XD/6-311g** scf(maxcycle=200)\\Gaussian input\\0,1\O,0,0.,0.11751
 ,0.\H,0,0.7183372325,-0.4395112028,0.\H,0,-0.6987871447,-0.4638483459,
 0.\\Version=ES64L-G16RevC.01\State=1-A1\HF=-76.4179365\RMSD=9.141e-09\
 Dipole=0.0141333,-0.8229653,0.\Quadrupole=1.0495001,-0.1150195,-0.9344
 806,0.0200049,0.,0.\PG=C02V [C2(O1),SGV(H2)]\\@
 The archive entry for this job was punched.


 THE ... SCIENTISTS WERE WRONG ... THE MOST PERSISTENT PRINCIPLES 
 OF THE UNIVERSE WERE ACCIDENT AND ERROR.

                          -- FRANK HERBERT IN DUNE
 Job cpu time:       0 days  0 hours  0 minutes 19.6 seconds.
 Elapsed time:       0 days  0 hours  0 minutes  9.8 seconds.
 File lengths (MBytes):  RWF=      6 Int=      0 D2E=      0 Chk=      1 Scr=      1
 Normal termination of Gaussian 16 at Wed Feb  8 14:39:58 2023.
