 Entering Gaussian System, Link 0=/opt/cluster/programs/g16-c.01/g16/g16
 Input=/scratch/boittier/jobs/tmp.7262158/gaussian_25_water_ccsdt_adz.com
 Output=/scratch/boittier/jobs/tmp.7262158/gaussian_25_water_ccsdt_adz.out
 Initial command:
 /opt/cluster/programs/g16-c.01/g16/l1.exe "/scratch/boittier/jobs/tmp.7262158/Gau-105071.inp" -scrdir="/scratch/boittier/jobs/tmp.7262158/"
 Entering Link 1 = /opt/cluster/programs/g16-c.01/g16/l1.exe PID=    105072.
  
 Copyright (c) 1988-2019, Gaussian, Inc.  All Rights Reserved.
  
 This is part of the Gaussian(R) 16 program.  It is based on
 the Gaussian(R) 09 system (copyright 2009, Gaussian, Inc.),
 the Gaussian(R) 03 system (copyright 2003, Gaussian, Inc.),
 the Gaussian(R) 98 system (copyright 1998, Gaussian, Inc.),
 the Gaussian(R) 94 system (copyright 1995, Gaussian, Inc.),
 the Gaussian 92(TM) system (copyright 1992, Gaussian, Inc.),
 the Gaussian 90(TM) system (copyright 1990, Gaussian, Inc.),
 the Gaussian 88(TM) system (copyright 1988, Gaussian, Inc.),
 the Gaussian 86(TM) system (copyright 1986, Carnegie Mellon
 University), and the Gaussian 82(TM) system (copyright 1983,
 Carnegie Mellon University). Gaussian is a federally registered
 trademark of Gaussian, Inc.
  
 This software contains proprietary and confidential information,
 including trade secrets, belonging to Gaussian, Inc.
  
 This software is provided under written license and may be
 used, copied, transmitted, or stored only in accord with that
 written license.
  
 The following legend is applicable only to US Government
 contracts under FAR:
  
                    RESTRICTED RIGHTS LEGEND
  
 Use, reproduction and disclosure by the US Government is
 subject to restrictions as set forth in subparagraphs (a)
 and (c) of the Commercial Computer Software - Restricted
 Rights clause in FAR 52.227-19.
  
 Gaussian, Inc.
 340 Quinnipiac St., Bldg. 40, Wallingford CT 06492
  
  
 ---------------------------------------------------------------
 Warning -- This program may not be used in any manner that
 competes with the business of Gaussian, Inc. or will provide
 assistance to any competitor of Gaussian, Inc.  The licensee
 of this program is prohibited from giving any competitor of
 Gaussian, Inc. access to this program.  By using this program,
 the user acknowledges that Gaussian, Inc. is engaged in the
 business of creating and licensing software in the field of
 computational chemistry and represents and warrants to the
 licensee that it is not a competitor of Gaussian, Inc. and that
 it will not use this program in any manner prohibited above.
 ---------------------------------------------------------------
  

 Cite this work as:
 Gaussian 16, Revision C.01,
 M. J. Frisch, G. W. Trucks, H. B. Schlegel, G. E. Scuseria, 
 M. A. Robb, J. R. Cheeseman, G. Scalmani, V. Barone, 
 G. A. Petersson, H. Nakatsuji, X. Li, M. Caricato, A. V. Marenich, 
 J. Bloino, B. G. Janesko, R. Gomperts, B. Mennucci, H. P. Hratchian, 
 J. V. Ortiz, A. F. Izmaylov, J. L. Sonnenberg, D. Williams-Young, 
 F. Ding, F. Lipparini, F. Egidi, J. Goings, B. Peng, A. Petrone, 
 T. Henderson, D. Ranasinghe, V. G. Zakrzewski, J. Gao, N. Rega, 
 G. Zheng, W. Liang, M. Hada, M. Ehara, K. Toyota, R. Fukuda, 
 J. Hasegawa, M. Ishida, T. Nakajima, Y. Honda, O. Kitao, H. Nakai, 
 T. Vreven, K. Throssell, J. A. Montgomery, Jr., J. E. Peralta, 
 F. Ogliaro, M. J. Bearpark, J. J. Heyd, E. N. Brothers, K. N. Kudin, 
 V. N. Staroverov, T. A. Keith, R. Kobayashi, J. Normand, 
 K. Raghavachari, A. P. Rendell, J. C. Burant, S. S. Iyengar, 
 J. Tomasi, M. Cossi, J. M. Millam, M. Klene, C. Adamo, R. Cammi, 
 J. W. Ochterski, R. L. Martin, K. Morokuma, O. Farkas, 
 J. B. Foresman, and D. J. Fox, Gaussian, Inc., Wallingford CT, 2019.
 
 ******************************************
 Gaussian 16:  ES64L-G16RevC.01  3-Jul-2019
                 8-Feb-2023 
 ******************************************
 %nproc=4
 Will use up to    4 processors via shared memory.
 %mem=5760MB
 %chk=gaussian_25_water_ccsdt_adz.chk
 ----------------------------------------
 #P CCSD(T)/aug-cc-pVDZ scf(maxcycle=200)
 ----------------------------------------
 1/38=1,172=1/1;
 2/12=2,17=6,18=5,40=1/2;
 3/5=16,7=10,11=9,25=1,30=1/1,2,3;
 4//1;
 5/5=2,7=200,38=5/2;
 8/6=4,9=120000,10=1/1,4;
 9/5=7,14=2/13;
 6/7=2,8=2,9=2,10=2/1;
 99/5=1,9=1/99;
 Leave Link    1 at Wed Feb  8 14:47:20 2023, MaxMem=   754974720 cpu:               0.1 elap:               0.0
 (Enter /opt/cluster/programs/g16-c.01/g16/l101.exe)
 --------------
 Gaussian input
 --------------
 Symbolic Z-matrix:
 Charge =  0 Multiplicity = 1
 O                     0.        0.11751   0. 
 H                     0.71834  -0.43951   0. 
 H                    -0.64469  -0.59246   0. 
 
 ITRead=  0  0  0
 MicOpt= -1 -1 -1
 NAtoms=      3 NQM=        3 NQMF=       0 NMMI=      0 NMMIF=      0
                NMic=       0 NMicF=      0.
                    Isotopes and Nuclear Properties:
 (Nuclear quadrupole moments (NQMom) in fm**2, nuclear magnetic moments (NMagM)
  in nuclear magnetons)

  Atom         1           2           3
 IAtWgt=          16           1           1
 AtmWgt=  15.9949146   1.0078250   1.0078250
 NucSpn=           0           1           1
 AtZEff=  -0.0000000  -0.0000000  -0.0000000
 NQMom=    0.0000000   0.0000000   0.0000000
 NMagM=    0.0000000   2.7928460   2.7928460
 AtZNuc=   8.0000000   1.0000000   1.0000000
 Leave Link  101 at Wed Feb  8 14:47:20 2023, MaxMem=   754974720 cpu:               0.4 elap:               0.2
 (Enter /opt/cluster/programs/g16-c.01/g16/l202.exe)
                          Input orientation:                          
 ---------------------------------------------------------------------
 Center     Atomic      Atomic             Coordinates (Angstroms)
 Number     Number       Type             X           Y           Z
 ---------------------------------------------------------------------
      1          8           0        0.000000    0.117510    0.000000
      2          1           0        0.718337   -0.439511    0.000000
      3          1           0       -0.644690   -0.592459    0.000000
 ---------------------------------------------------------------------
                    Distance matrix (angstroms):
                    1          2          3
     1  O    0.000000
     2  H    0.909000   0.000000
     3  H    0.959000   1.371581   0.000000
 Stoichiometry    H2O
 Framework group  CS[SG(H2O)]
 Deg. of freedom     3
 Full point group                 CS      NOp   2
 Largest Abelian subgroup         CS      NOp   2
 Largest concise Abelian subgroup C1      NOp   1
                         Standard orientation:                         
 ---------------------------------------------------------------------
 Center     Atomic      Atomic             Coordinates (Angstroms)
 Number     Number       Type             X           Y           Z
 ---------------------------------------------------------------------
      1          8           0        0.000000    0.126913    0.000000
      2          1           0        0.684803   -0.470855    0.000000
      3          1           0       -0.684803   -0.544448    0.000000
 ---------------------------------------------------------------------
 Rotational constants (GHZ):         709.3456877         528.4561861         302.8417751
 Leave Link  202 at Wed Feb  8 14:47:20 2023, MaxMem=   754974720 cpu:               0.1 elap:               0.0
 (Enter /opt/cluster/programs/g16-c.01/g16/l301.exe)
 Standard basis: Aug-CC-pVDZ (5D, 7F)
 Ernie: Thresh=  0.10000D-02 Tol=  0.10000D-05 Strict=F.
 Ernie:  2 primitive shells out of 39 were deleted.
 There are    32 symmetry adapted cartesian basis functions of A'  symmetry.
 There are    11 symmetry adapted cartesian basis functions of A"  symmetry.
 There are    30 symmetry adapted basis functions of A'  symmetry.
 There are    11 symmetry adapted basis functions of A"  symmetry.
    41 basis functions,    65 primitive gaussians,    43 cartesian basis functions
     5 alpha electrons        5 beta electrons
       nuclear repulsion energy         9.4574489906 Hartrees.
 IExCor=    0 DFT=F Ex=HF Corr=None ExCW=0 ScaHFX=  1.000000
 ScaDFX=  1.000000  1.000000  1.000000  1.000000 ScalE2=  1.000000  1.000000
 IRadAn=      5 IRanWt=     -1 IRanGd=            0 ICorTp=0 IEmpDi=  4
 NAtoms=    3 NActive=    3 NUniq=    3 SFac= 1.00D+00 NAtFMM=   60 NAOKFM=F Big=F
 Integral buffers will be    131072 words long.
 Raffenetti 1 integral format.
 Two-electron integral symmetry is turned on.
 Leave Link  301 at Wed Feb  8 14:47:20 2023, MaxMem=   754974720 cpu:               0.1 elap:               0.1
 (Enter /opt/cluster/programs/g16-c.01/g16/l302.exe)
 NPDir=0 NMtPBC=     1 NCelOv=     1 NCel=       1 NClECP=     1 NCelD=      1
         NCelK=      1 NCelE2=     1 NClLst=     1 CellRange=     0.0.
 One-electron integrals computed using PRISM.
 One-electron integral symmetry used in STVInt
 NBasis=    41 RedAO= T EigKep=  1.94D-03  NBF=    30    11
 NBsUse=    41 1.00D-06 EigRej= -1.00D+00 NBFU=    30    11
 Leave Link  302 at Wed Feb  8 14:47:21 2023, MaxMem=   754974720 cpu:               1.7 elap:               0.6
 (Enter /opt/cluster/programs/g16-c.01/g16/l303.exe)
 DipDrv:  MaxL=1.
 Leave Link  303 at Wed Feb  8 14:47:21 2023, MaxMem=   754974720 cpu:               0.5 elap:               0.3
 (Enter /opt/cluster/programs/g16-c.01/g16/l401.exe)
 ExpMin= 2.97D-02 ExpMax= 1.17D+04 ExpMxC= 4.01D+02 IAcc=3 IRadAn=         5 AccDes= 0.00D+00
 Harris functional with IExCor=  205 and IRadAn=       5 diagonalized for initial guess.
 HarFok:  IExCor=  205 AccDes= 0.00D+00 IRadAn=         5 IDoV= 1 UseB2=F ITyADJ=14
 ICtDFT=  3500011 ScaDFX=  1.000000  1.000000  1.000000  1.000000
 FoFCou: FMM=F IPFlag=           0 FMFlag=      100000 FMFlg1=           0
         NFxFlg=           0 DoJE=T BraDBF=F KetDBF=T FulRan=T
         wScrn=  0.000000 ICntrl=       500 IOpCl=  0 I1Cent=   200000004 NGrid=           0
         NMat0=    1 NMatS0=      1 NMatT0=    0 NMatD0=    1 NMtDS0=    0 NMtDT0=    0
 Petite list used in FoFCou.
 Harris En= -76.1200673810825    
 JPrj=0 DoOrth=F DoCkMO=F.
 Initial guess orbital symmetries:
       Occupied  (A') (A') (A') (A') (A")
       Virtual   (A') (A') (A') (A") (A') (A') (A') (A') (A') (A")
                 (A") (A') (A') (A') (A') (A') (A") (A') (A") (A')
                 (A") (A') (A') (A") (A') (A") (A') (A') (A') (A')
                 (A') (A") (A') (A") (A') (A')
 The electronic state of the initial guess is 1-A'.
 Leave Link  401 at Wed Feb  8 14:47:21 2023, MaxMem=   754974720 cpu:               1.6 elap:               0.5
 (Enter /opt/cluster/programs/g16-c.01/g16/l502.exe)
 Keep R1 ints in memory in symmetry-blocked form, NReq=1210696.
 FoFCou: FMM=F IPFlag=           0 FMFlag=           0 FMFlg1=           0
         NFxFlg=           0 DoJE=F BraDBF=F KetDBF=F FulRan=T
         wScrn=  0.000000 ICntrl=       600 IOpCl=  0 I1Cent=           0 NGrid=           0
         NMat0=    1 NMatS0=    861 NMatT0=    0 NMatD0=    1 NMtDS0=    0 NMtDT0=    0
 Petite list used in FoFCou.
 Closed shell SCF:
 Using DIIS extrapolation, IDIIS=  1040.
 NGot=   754974720 LenX=   754771907 LenY=   754769617
 Requested convergence on RMS density matrix=1.00D-08 within 200 cycles.
 Requested convergence on MAX density matrix=1.00D-06.
 Requested convergence on             energy=1.00D-06.
 No special actions if energy rises.

 Cycle   1  Pass 1  IDiag  1:
 E= -75.9575975998638    
 DIIS: error= 5.15D-02 at cycle   1 NSaved=   1.
 NSaved= 1 IEnMin= 1 EnMin= -75.9575975998638     IErMin= 1 ErrMin= 5.15D-02
 ErrMax= 5.15D-02  0.00D+00 EMaxC= 1.00D-01 BMatC= 1.21D-01 BMatP= 1.21D-01
 IDIUse=3 WtCom= 4.85D-01 WtEn= 5.15D-01
 Coeff-Com:  0.100D+01
 Coeff-En:   0.100D+01
 Coeff:      0.100D+01
 Gap=     0.459 Goal=   None    Shift=    0.000
 GapD=    0.459 DampG=2.000 DampE=0.500 DampFc=1.0000 IDamp=-1.
 RMSDP=6.43D-03 MaxDP=1.19D-01              OVMax= 1.20D-01

 Cycle   2  Pass 1  IDiag  1:
 E= -76.0043359299958     Delta-E=       -0.046738330132 Rises=F Damp=F
 DIIS: error= 3.96D-02 at cycle   2 NSaved=   2.
 NSaved= 2 IEnMin= 2 EnMin= -76.0043359299958     IErMin= 2 ErrMin= 3.96D-02
 ErrMax= 3.96D-02  0.00D+00 EMaxC= 1.00D-01 BMatC= 4.55D-02 BMatP= 1.21D-01
 IDIUse=3 WtCom= 6.04D-01 WtEn= 3.96D-01
 Coeff-Com:  0.370D+00 0.630D+00
 Coeff-En:   0.197D+00 0.803D+00
 Coeff:      0.302D+00 0.698D+00
 Gap=     0.567 Goal=   None    Shift=    0.000
 RMSDP=2.97D-03 MaxDP=5.44D-02 DE=-4.67D-02 OVMax= 5.85D-02

 Cycle   3  Pass 1  IDiag  1:
 E= -76.0352772525571     Delta-E=       -0.030941322561 Rises=F Damp=F
 DIIS: error= 4.79D-03 at cycle   3 NSaved=   3.
 NSaved= 3 IEnMin= 3 EnMin= -76.0352772525571     IErMin= 3 ErrMin= 4.79D-03
 ErrMax= 4.79D-03  0.00D+00 EMaxC= 1.00D-01 BMatC= 1.19D-03 BMatP= 4.55D-02
 IDIUse=3 WtCom= 9.52D-01 WtEn= 4.79D-02
 Coeff-Com: -0.376D-01 0.944D-01 0.943D+00
 Coeff-En:   0.000D+00 0.000D+00 0.100D+01
 Coeff:     -0.358D-01 0.899D-01 0.946D+00
 Gap=     0.548 Goal=   None    Shift=    0.000
 RMSDP=4.75D-04 MaxDP=8.28D-03 DE=-3.09D-02 OVMax= 9.22D-03

 Cycle   4  Pass 1  IDiag  1:
 E= -76.0361593997124     Delta-E=       -0.000882147155 Rises=F Damp=F
 DIIS: error= 6.00D-04 at cycle   4 NSaved=   4.
 NSaved= 4 IEnMin= 4 EnMin= -76.0361593997124     IErMin= 4 ErrMin= 6.00D-04
 ErrMax= 6.00D-04  0.00D+00 EMaxC= 1.00D-01 BMatC= 6.39D-06 BMatP= 1.19D-03
 IDIUse=3 WtCom= 9.94D-01 WtEn= 6.00D-03
 Coeff-Com:  0.959D-02-0.441D-01-0.338D+00 0.137D+01
 Coeff-En:   0.000D+00 0.000D+00 0.000D+00 0.100D+01
 Coeff:      0.953D-02-0.438D-01-0.336D+00 0.137D+01
 Gap=     0.549 Goal=   None    Shift=    0.000
 RMSDP=1.03D-04 MaxDP=1.03D-03 DE=-8.82D-04 OVMax= 1.96D-03

 Cycle   5  Pass 1  IDiag  1:
 E= -76.0361745731649     Delta-E=       -0.000015173452 Rises=F Damp=F
 DIIS: error= 1.53D-04 at cycle   5 NSaved=   5.
 NSaved= 5 IEnMin= 5 EnMin= -76.0361745731649     IErMin= 5 ErrMin= 1.53D-04
 ErrMax= 1.53D-04  0.00D+00 EMaxC= 1.00D-01 BMatC= 2.33D-07 BMatP= 6.39D-06
 IDIUse=3 WtCom= 9.98D-01 WtEn= 1.53D-03
 Coeff-Com: -0.135D-02 0.838D-02 0.632D-01-0.400D+00 0.133D+01
 Coeff-En:   0.000D+00 0.000D+00 0.000D+00 0.000D+00 0.100D+01
 Coeff:     -0.135D-02 0.837D-02 0.631D-01-0.400D+00 0.133D+01
 Gap=     0.549 Goal=   None    Shift=    0.000
 RMSDP=2.21D-05 MaxDP=3.48D-04 DE=-1.52D-05 OVMax= 4.67D-04

 Cycle   6  Pass 1  IDiag  1:
 E= -76.0361752444654     Delta-E=       -0.000000671301 Rises=F Damp=F
 DIIS: error= 2.14D-05 at cycle   6 NSaved=   6.
 NSaved= 6 IEnMin= 6 EnMin= -76.0361752444654     IErMin= 6 ErrMin= 2.14D-05
 ErrMax= 2.14D-05  0.00D+00 EMaxC= 1.00D-01 BMatC= 6.73D-09 BMatP= 2.33D-07
 IDIUse=1 WtCom= 1.00D+00 WtEn= 0.00D+00
 Coeff-Com: -0.142D-03 0.378D-03 0.231D-02 0.129D-01-0.224D+00 0.121D+01
 Coeff:     -0.142D-03 0.378D-03 0.231D-02 0.129D-01-0.224D+00 0.121D+01
 Gap=     0.549 Goal=   None    Shift=    0.000
 RMSDP=2.92D-06 MaxDP=6.03D-05 DE=-6.71D-07 OVMax= 8.00D-05

 Cycle   7  Pass 1  IDiag  1:
 E= -76.0361752627722     Delta-E=       -0.000000018307 Rises=F Damp=F
 DIIS: error= 4.26D-06 at cycle   7 NSaved=   7.
 NSaved= 7 IEnMin= 7 EnMin= -76.0361752627722     IErMin= 7 ErrMin= 4.26D-06
 ErrMax= 4.26D-06  0.00D+00 EMaxC= 1.00D-01 BMatC= 3.42D-10 BMatP= 6.73D-09
 IDIUse=1 WtCom= 1.00D+00 WtEn= 0.00D+00
 Coeff-Com:  0.111D-03-0.584D-03-0.446D-02 0.226D-01-0.333D-01-0.221D+00
 Coeff-Com:  0.124D+01
 Coeff:      0.111D-03-0.584D-03-0.446D-02 0.226D-01-0.333D-01-0.221D+00
 Coeff:      0.124D+01
 Gap=     0.549 Goal=   None    Shift=    0.000
 RMSDP=6.51D-07 MaxDP=1.03D-05 DE=-1.83D-08 OVMax= 1.65D-05

 Cycle   8  Pass 1  IDiag  1:
 E= -76.0361752635803     Delta-E=       -0.000000000808 Rises=F Damp=F
 DIIS: error= 6.45D-07 at cycle   8 NSaved=   8.
 NSaved= 8 IEnMin= 8 EnMin= -76.0361752635803     IErMin= 8 ErrMin= 6.45D-07
 ErrMax= 6.45D-07  0.00D+00 EMaxC= 1.00D-01 BMatC= 8.94D-12 BMatP= 3.42D-10
 IDIUse=1 WtCom= 1.00D+00 WtEn= 0.00D+00
 Coeff-Com: -0.198D-04 0.117D-03 0.935D-03-0.571D-02 0.150D-01 0.166D-01
 Coeff-Com: -0.320D+00 0.129D+01
 Coeff:     -0.198D-04 0.117D-03 0.935D-03-0.571D-02 0.150D-01 0.166D-01
 Coeff:     -0.320D+00 0.129D+01
 Gap=     0.549 Goal=   None    Shift=    0.000
 RMSDP=1.56D-07 MaxDP=2.00D-06 DE=-8.08D-10 OVMax= 2.83D-06

 Cycle   9  Pass 1  IDiag  1:
 E= -76.0361752636036     Delta-E=       -0.000000000023 Rises=F Damp=F
 DIIS: error= 8.84D-08 at cycle   9 NSaved=   9.
 NSaved= 9 IEnMin= 9 EnMin= -76.0361752636036     IErMin= 9 ErrMin= 8.84D-08
 ErrMax= 8.84D-08  0.00D+00 EMaxC= 1.00D-01 BMatC= 2.06D-13 BMatP= 8.94D-12
 IDIUse=1 WtCom= 1.00D+00 WtEn= 0.00D+00
 Coeff-Com:  0.327D-06-0.350D-05-0.410D-04 0.420D-03-0.183D-02 0.280D-02
 Coeff-Com:  0.286D-01-0.229D+00 0.120D+01
 Coeff:      0.327D-06-0.350D-05-0.410D-04 0.420D-03-0.183D-02 0.280D-02
 Coeff:      0.286D-01-0.229D+00 0.120D+01
 Gap=     0.549 Goal=   None    Shift=    0.000
 RMSDP=2.22D-08 MaxDP=2.34D-07 DE=-2.33D-11 OVMax= 3.40D-07

 Cycle  10  Pass 1  IDiag  1:
 E= -76.0361752636041     Delta-E=       -0.000000000000 Rises=F Damp=F
 DIIS: error= 2.05D-08 at cycle  10 NSaved=  10.
 NSaved=10 IEnMin=10 EnMin= -76.0361752636041     IErMin=10 ErrMin= 2.05D-08
 ErrMax= 2.05D-08  0.00D+00 EMaxC= 1.00D-01 BMatC= 1.08D-14 BMatP= 2.06D-13
 IDIUse=1 WtCom= 1.00D+00 WtEn= 0.00D+00
 Coeff-Com:  0.697D-06-0.378D-05-0.263D-04 0.116D-03-0.998D-04-0.141D-02
 Coeff-Com:  0.600D-02-0.268D-03-0.293D+00 0.129D+01
 Coeff:      0.697D-06-0.378D-05-0.263D-04 0.116D-03-0.998D-04-0.141D-02
 Coeff:      0.600D-02-0.268D-03-0.293D+00 0.129D+01
 Gap=     0.549 Goal=   None    Shift=    0.000
 RMSDP=5.56D-09 MaxDP=5.82D-08 DE=-4.55D-13 OVMax= 1.06D-07

 SCF Done:  E(RHF) =  -76.0361752636     A.U. after   10 cycles
            NFock= 10  Conv=0.56D-08     -V/T= 1.9999
 KE= 7.604406294753D+01 PE=-1.994514734130D+02 EE= 3.791378621134D+01
 Leave Link  502 at Wed Feb  8 14:47:25 2023, MaxMem=   754974720 cpu:               6.5 elap:               3.3
 (Enter /opt/cluster/programs/g16-c.01/g16/l801.exe)
 Windowed orbitals will be sorted by symmetry type.
 ExpMin= 2.97D-02 ExpMax= 1.17D+04 ExpMxC= 4.01D+02 IAcc=3 IRadAn=         5 AccDes= 0.00D+00
 HarFok:  IExCor=  205 AccDes= 0.00D+00 IRadAn=         5 IDoV=-2 UseB2=F ITyADJ=14
 ICtDFT= 12500011 ScaDFX=  1.000000  1.000000  1.000000  1.000000
 Largest valence mixing into a core orbital is  6.10D-05
 Largest core mixing into a valence orbital is  1.67D-05
 Range of M.O.s used for correlation:     2    41
 NBasis=    41 NAE=     5 NBE=     5 NFC=     1 NFV=     0
 NROrb=     40 NOA=     4 NOB=     4 NVA=    36 NVB=    36

 **** Warning!!: The largest alpha MO coefficient is  0.11588823D+02

 Leave Link  801 at Wed Feb  8 14:47:25 2023, MaxMem=   754974720 cpu:               0.6 elap:               0.2
 (Enter /opt/cluster/programs/g16-c.01/g16/l804.exe)
 Closed-shell transformation, MDV=   754974720 ITran=4 ISComp=2.
 Unit  1 TFree=         57024 TCopy=        242858.
 Semi-Direct transformation.
 ModeAB=           2 MOrb=             4 LenV=     754769647
 LASXX=        60334 LTotXX=       60334 LenRXX=       60334
 LTotAB=       65632 MaxLAS=      151360 LenRXY=      151360
 NonZer=      159520 LenScr=      785920 LnRSAI=           0
 LnScr1=           0 LExtra=           0 Total=       997614
 MaxDsk=          -1 SrtSym=           F ITran=            4
 DoSDTr:  NPSUse=  4
 JobTyp=0 Pass  1:  I=   1 to   4.
 (rs|ai) integrals will be sorted in core.
 Complete sort for first half transformation.
 First half transformation complete.
 Complete sort for second half transformation.
 Second half transformation complete.
 Spin components of T(2) and E(2):
     alpha-alpha T2 =       0.7588464049D-02 E2=     -0.2781481045D-01
     alpha-beta  T2 =       0.4270153300D-01 E2=     -0.1625242430D+00
     beta-beta   T2 =       0.7588464049D-02 E2=     -0.2781481045D-01
 ANorm=    0.1028532188D+01
 E2 =    -0.2181538639D+00 EUMP2 =    -0.76254329127547D+02
 Leave Link  804 at Wed Feb  8 14:47:30 2023, MaxMem=   754974720 cpu:              10.2 elap:               5.1
 (Enter /opt/cluster/programs/g16-c.01/g16/l913.exe)
 CIDS:  MDV=   754974720.
 Frozen-core window:  NFC=   1 NFV=   0.
 IFCWin=0 IBDFC=1 NFBD=     0     0 NFCmp=     0     0 NFFFC=     0     0
 Using DD3R+UMP44R for 1st iteration.
 Using DD4RQ for 2nd and later iterations.
 Keep R2 and R3 ints in memory in symmetry-blocked form, NReq=1234065.
 FoFCou: FMM=F IPFlag=           0 FMFlag=           0 FMFlg1=           0
         NFxFlg=           0 DoJE=F BraDBF=F KetDBF=F FulRan=T
         wScrn=  0.000000 ICntrl=       600 IOpCl=  0 I1Cent=           0 NGrid=           0
         NMat0=    1 NMatS0=    861 NMatT0=    0 NMatD0=    1 NMtDS0=    0 NMtDT0=    0
 Petite list used in FoFCou.
 CIDS: In Core Option IDoMem=           1.
 CCSD(T)
 =======
 Iterations=  50 Convergence= 0.100D-06
 Produce multiple copies of IABC intergrals
 Iteration Nr.   1
 **********************
 DD1Dir will call FoFMem   1 times, MxPair=        20
 NAB=    10 NAA=     0 NBB=     0.
 MP4(R+Q)=  0.24556001D-02
 Maximum subspace dimension=  5
 A-vector RMS=  5.2563816D-03 Max=  1.6334747D-02 conv= 1.00D-05.
 RLE energy=       -0.2205692923
 E3=       -0.49318836D-02        EUMP3=      -0.76259261011D+02
 E4(DQ)=   -0.13505622D-02        UMP4(DQ)=   -0.76260611573D+02
 E4(SDQ)=  -0.30191448D-02        UMP4(SDQ)=  -0.76262280156D+02
 VARIATIONAL ENERGIES WITH THE FIRST-ORDER WAVEFUNCTION:
 DE(Corr)= -0.22054288     E(Corr)=     -76.256718140    
 NORM(A)=   0.10295328D+01
 Iteration Nr.   2
 **********************
 DD1Dir will call FoFMem   1 times, MxPair=        20
 NAB=    10 NAA=     0 NBB=     0.
 A-vector RMS=  6.1311289D-04 Max=  2.8765658D-03 conv= 1.00D-05.
 RLE energy=       -0.2255185673
 DE(Corr)= -0.22494082     E(CORR)=     -76.261116086     Delta=-4.40D-03
 NORM(A)=   0.10316013D+01
 Iteration Nr.   3
 **********************
 DD1Dir will call FoFMem   1 times, MxPair=        20
 NAB=    10 NAA=     0 NBB=     0.
 A-vector RMS=  7.0872159D-04 Max=  2.7049733D-03 conv= 1.00D-05.
 RLE energy=       -0.2258678962
 DE(Corr)= -0.22547343     E(CORR)=     -76.261648694     Delta=-5.33D-04
 NORM(A)=   0.10320807D+01
 Iteration Nr.   4
 **********************
 DD1Dir will call FoFMem   1 times, MxPair=        20
 NAB=    10 NAA=     0 NBB=     0.
 A-vector RMS=  9.0299283D-05 Max=  3.4259334D-04 conv= 1.00D-05.
 RLE energy=       -0.2259028149
 DE(Corr)= -0.22587492     E(CORR)=     -76.262050185     Delta=-4.01D-04
 NORM(A)=   0.10321865D+01
 Iteration Nr.   5
 **********************
 DD1Dir will call FoFMem   1 times, MxPair=        20
 NAB=    10 NAA=     0 NBB=     0.
 A-vector RMS=  3.5156642D-05 Max=  1.5610013D-04 conv= 1.00D-05.
 RLE energy=       -0.2259078206
 DE(Corr)= -0.22590457     E(CORR)=     -76.262079829     Delta=-2.96D-05
 NORM(A)=   0.10322029D+01
 Iteration Nr.   6
 **********************
 DD1Dir will call FoFMem   1 times, MxPair=        20
 NAB=    10 NAA=     0 NBB=     0.
 A-vector RMS=  9.9369371D-06 Max=  4.1461076D-05 conv= 1.00D-05.
 RLE energy=       -0.2259053437
 DE(Corr)= -0.22590643     E(CORR)=     -76.262081695     Delta=-1.87D-06
 NORM(A)=   0.10322046D+01
 Iteration Nr.   7
 **********************
 DD1Dir will call FoFMem   1 times, MxPair=        20
 NAB=    10 NAA=     0 NBB=     0.
 A-vector RMS=  3.3473431D-06 Max=  1.2181262D-05 conv= 1.00D-05.
 RLE energy=       -0.2259058567
 DE(Corr)= -0.22590643     E(CORR)=     -76.262081692     Delta= 2.33D-09
 NORM(A)=   0.10322051D+01
 Iteration Nr.   8
 **********************
 DD1Dir will call FoFMem   1 times, MxPair=        20
 NAB=    10 NAA=     0 NBB=     0.
 A-vector RMS=  1.1102832D-06 Max=  5.1296913D-06 conv= 1.00D-05.
 RLE energy=       -0.2259060723
 DE(Corr)= -0.22590614     E(CORR)=     -76.262081404     Delta= 2.89D-07
 NORM(A)=   0.10322055D+01
 Iteration Nr.   9
 **********************
 DD1Dir will call FoFMem   1 times, MxPair=        20
 NAB=    10 NAA=     0 NBB=     0.
 A-vector RMS=  2.3059378D-07 Max=  9.5644245D-07 conv= 1.00D-05.
 RLE energy=       -0.2259062533
 DE(Corr)= -0.22590626     E(CORR)=     -76.262081527     Delta=-1.23D-07
 NORM(A)=   0.10322056D+01
 Iteration Nr.  10
 **********************
 DD1Dir will call FoFMem   1 times, MxPair=        20
 NAB=    10 NAA=     0 NBB=     0.
 A-vector RMS=  1.0422979D-07 Max=  3.7814461D-07 conv= 1.00D-05.
 RLE energy=       -0.2259062889
 DE(Corr)= -0.22590627     E(CORR)=     -76.262081538     Delta=-1.15D-08
 NORM(A)=   0.10322057D+01
 CI/CC converged in   10 iterations to DelEn=-1.15D-08 Conv= 1.00D-07 ErrA1= 1.04D-07 Conv= 1.00D-05
 Wavefunction amplitudes converged. E(Corr)=     -76.262081538    
 Largest amplitude= 3.48D-02
 IPart=  2 IA=    3   10.95% done.
 IPart=  4 IA=    5   21.27% done.
 IPart=  1 IA=    7   30.95% done.
 IPart=  3 IA=    9   40.00% done.
 IPart=  1 IA=   12   52.38% done.
 IPart=  2 IA=   15   63.33% done.
 IPart=  1 IA=   18   72.86% done.
 IPart=  1 IA=   21   80.95% done.
 IPart=  1 IA=   26   91.27% done.
 Time for triples=        0.66 seconds.
 T4(CCSD)= -0.55023093D-02
 T5(CCSD)=  0.38513278D-03
 CCSD(T)= -0.76267198715D+02
 Discarding MO integrals.
 Leave Link  913 at Wed Feb  8 14:47:52 2023, MaxMem=   754974720 cpu:              44.6 elap:              22.3
 (Enter /opt/cluster/programs/g16-c.01/g16/l601.exe)
 Copying SCF densities to generalized density rwf, IOpCl= 0 IROHF=0.

 **********************************************************************

            Population analysis using the SCF Density.

 **********************************************************************

 Orbital symmetries:
       Occupied  (A') (A') (A') (A') (A")
       Virtual   (A') (A') (A') (A") (A') (A') (A') (A') (A') (A")
                 (A") (A') (A') (A') (A') (A') (A") (A') (A") (A')
                 (A') (A") (A') (A") (A') (A") (A') (A') (A') (A')
                 (A') (A") (A') (A") (A') (A')
 The electronic state is 1-A'.
 Alpha  occ. eigenvalues --  -20.57713  -1.37794  -0.71044  -0.61023  -0.51418
 Alpha virt. eigenvalues --    0.03482   0.05892   0.17196   0.19676   0.22438
 Alpha virt. eigenvalues --    0.23355   0.29270   0.35096   0.38944   0.39283
 Alpha virt. eigenvalues --    0.42369   0.55227   0.64796   0.66111   0.80172
 Alpha virt. eigenvalues --    0.96415   1.10651   1.12476   1.15064   1.28528
 Alpha virt. eigenvalues --    1.45316   1.47740   1.61185   2.00761   2.05064
 Alpha virt. eigenvalues --    2.14998   2.24123   2.53759   2.67321   2.74724
 Alpha virt. eigenvalues --    3.03841   3.67959   3.70521   3.70661   4.01692
 Alpha virt. eigenvalues --    4.38053
          Condensed to atoms (all electrons):
               1          2          3
     1  O    7.558756   0.345929   0.330900
     2  H    0.345929   0.592322  -0.029982
     3  H    0.330900  -0.029982   0.555226
 Mulliken charges:
               1
     1  O   -0.235585
     2  H    0.091730
     3  H    0.143856
 Sum of Mulliken charges =   0.00000
 Mulliken charges with hydrogens summed into heavy atoms:
               1
     1  O    0.000000
 Electronic spatial extent (au):  <R**2>=             19.2078
 Charge=              0.0000 electrons
 Dipole moment (field-independent basis, Debye):
    X=              0.0289    Y=             -2.1336    Z=              0.0000  Tot=              2.1338
 Quadrupole moment (field-independent basis, Debye-Ang):
   XX=             -4.7597   YY=             -5.9479   ZZ=             -7.5150
   XY=              0.1056   XZ=              0.0000   YZ=              0.0000
 Traceless Quadrupole moment (field-independent basis, Debye-Ang):
   XX=              1.3145   YY=              0.1263   ZZ=             -1.4408
   XY=              0.1056   XZ=              0.0000   YZ=              0.0000
 Octapole moment (field-independent basis, Debye-Ang**2):
  XXX=              0.0791  YYY=             -1.4107  ZZZ=              0.0000  XYY=             -0.0800
  XXY=             -1.2593  XXZ=              0.0000  XZZ=              0.0311  YZZ=             -0.3318
  YYZ=              0.0000  XYZ=              0.0000
 Hexadecapole moment (field-independent basis, Debye-Ang**3):
 XXXX=             -6.1228 YYYY=             -7.1463 ZZZZ=             -6.6693 XXXY=             -0.0259
 XXXZ=              0.0000 YYYX=              0.0071 YYYZ=              0.0000 ZZZX=              0.0000
 ZZZY=              0.0000 XXYY=             -1.8233 XXZZ=             -2.3377 YYZZ=             -2.3720
 XXYZ=              0.0000 YYXZ=              0.0000 ZZXY=             -0.0321
 N-N= 9.457448990571D+00 E-N=-1.994514733799D+02  KE= 7.604406294753D+01
 Symmetry A'   KE= 7.159171161668D+01
 Symmetry A"   KE= 4.452351330851D+00
 Leave Link  601 at Wed Feb  8 14:47:53 2023, MaxMem=   754974720 cpu:               0.5 elap:               0.2
 (Enter /opt/cluster/programs/g16-c.01/g16/l9999.exe)
 Unable to Open any file for archive entry.
 1\1\GINC-NODE64\SP\RCCSD(T)-FC\Aug-CC-pVDZ\H2O1\BOITTIER\08-Feb-2023\0
 \\#P CCSD(T)/aug-cc-pVDZ scf(maxcycle=200)\\Gaussian input\\0,1\O,0,0.
 ,0.11751,0.\H,0,0.7183372325,-0.4395112028,0.\H,0,-0.6446897571,-0.592
 4590958,0.\\Version=ES64L-G16RevC.01\State=1-A'\HF=-76.0361753\MP2=-76
 .2543291\MP3=-76.259261\MP4D=-76.2630672\MP4DQ=-76.2606116\MP4SDQ=-76.
 2622802\CCSD=-76.2620815\CCSD(T)=-76.2671987\RMSD=5.557e-09\PG=CS [SG(
 H2O1)]\\@
 The archive entry for this job was punched.


 Just remember, when you're over the hill, you begin to pick up speed.
 -- Charles Schulz
 Job cpu time:       0 days  0 hours  1 minutes  7.1 seconds.
 Elapsed time:       0 days  0 hours  0 minutes 32.9 seconds.
 File lengths (MBytes):  RWF=     15 Int=      0 D2E=      0 Chk=      1 Scr=      1
 Normal termination of Gaussian 16 at Wed Feb  8 14:47:53 2023.
