 Entering Gaussian System, Link 0=/opt/cluster/programs/g16-c.01/g16/g16
 Input=/scratch/boittier/jobs/tmp.7261989/gaussian_50_water_wb97_ptz.com
 Output=/scratch/boittier/jobs/tmp.7261989/gaussian_50_water_wb97_ptz.out
 Initial command:
 /opt/cluster/programs/g16-c.01/g16/l1.exe "/scratch/boittier/jobs/tmp.7261989/Gau-152300.inp" -scrdir="/scratch/boittier/jobs/tmp.7261989/"
 Entering Link 1 = /opt/cluster/programs/g16-c.01/g16/l1.exe PID=    152301.
  
 Copyright (c) 1988-2019, Gaussian, Inc.  All Rights Reserved.
  
 This is part of the Gaussian(R) 16 program.  It is based on
 the Gaussian(R) 09 system (copyright 2009, Gaussian, Inc.),
 the Gaussian(R) 03 system (copyright 2003, Gaussian, Inc.),
 the Gaussian(R) 98 system (copyright 1998, Gaussian, Inc.),
 the Gaussian(R) 94 system (copyright 1995, Gaussian, Inc.),
 the Gaussian 92(TM) system (copyright 1992, Gaussian, Inc.),
 the Gaussian 90(TM) system (copyright 1990, Gaussian, Inc.),
 the Gaussian 88(TM) system (copyright 1988, Gaussian, Inc.),
 the Gaussian 86(TM) system (copyright 1986, Carnegie Mellon
 University), and the Gaussian 82(TM) system (copyright 1983,
 Carnegie Mellon University). Gaussian is a federally registered
 trademark of Gaussian, Inc.
  
 This software contains proprietary and confidential information,
 including trade secrets, belonging to Gaussian, Inc.
  
 This software is provided under written license and may be
 used, copied, transmitted, or stored only in accord with that
 written license.
  
 The following legend is applicable only to US Government
 contracts under FAR:
  
                    RESTRICTED RIGHTS LEGEND
  
 Use, reproduction and disclosure by the US Government is
 subject to restrictions as set forth in subparagraphs (a)
 and (c) of the Commercial Computer Software - Restricted
 Rights clause in FAR 52.227-19.
  
 Gaussian, Inc.
 340 Quinnipiac St., Bldg. 40, Wallingford CT 06492
  
  
 ---------------------------------------------------------------
 Warning -- This program may not be used in any manner that
 competes with the business of Gaussian, Inc. or will provide
 assistance to any competitor of Gaussian, Inc.  The licensee
 of this program is prohibited from giving any competitor of
 Gaussian, Inc. access to this program.  By using this program,
 the user acknowledges that Gaussian, Inc. is engaged in the
 business of creating and licensing software in the field of
 computational chemistry and represents and warrants to the
 licensee that it is not a competitor of Gaussian, Inc. and that
 it will not use this program in any manner prohibited above.
 ---------------------------------------------------------------
  

 Cite this work as:
 Gaussian 16, Revision C.01,
 M. J. Frisch, G. W. Trucks, H. B. Schlegel, G. E. Scuseria, 
 M. A. Robb, J. R. Cheeseman, G. Scalmani, V. Barone, 
 G. A. Petersson, H. Nakatsuji, X. Li, M. Caricato, A. V. Marenich, 
 J. Bloino, B. G. Janesko, R. Gomperts, B. Mennucci, H. P. Hratchian, 
 J. V. Ortiz, A. F. Izmaylov, J. L. Sonnenberg, D. Williams-Young, 
 F. Ding, F. Lipparini, F. Egidi, J. Goings, B. Peng, A. Petrone, 
 T. Henderson, D. Ranasinghe, V. G. Zakrzewski, J. Gao, N. Rega, 
 G. Zheng, W. Liang, M. Hada, M. Ehara, K. Toyota, R. Fukuda, 
 J. Hasegawa, M. Ishida, T. Nakajima, Y. Honda, O. Kitao, H. Nakai, 
 T. Vreven, K. Throssell, J. A. Montgomery, Jr., J. E. Peralta, 
 F. Ogliaro, M. J. Bearpark, J. J. Heyd, E. N. Brothers, K. N. Kudin, 
 V. N. Staroverov, T. A. Keith, R. Kobayashi, J. Normand, 
 K. Raghavachari, A. P. Rendell, J. C. Burant, S. S. Iyengar, 
 J. Tomasi, M. Cossi, J. M. Millam, M. Klene, C. Adamo, R. Cammi, 
 J. W. Ochterski, R. L. Martin, K. Morokuma, O. Farkas, 
 J. B. Foresman, and D. J. Fox, Gaussian, Inc., Wallingford CT, 2019.
 
 ******************************************
 Gaussian 16:  ES64L-G16RevC.01  3-Jul-2019
                 8-Feb-2023 
 ******************************************
 %nproc=4
 Will use up to    4 processors via shared memory.
 %mem=5760MB
 %chk=gaussian_50_water_wb97_ptz.chk
 ------------------------------------
 #P wB97XD/6-311g** scf(maxcycle=200)
 ------------------------------------
 1/38=1,172=1/1;
 2/12=2,17=6,18=5,40=1/2;
 3/5=4,6=6,7=101,11=2,25=1,30=1,74=-58/1,2,3;
 4//1;
 5/5=2,7=200,38=5/2;
 6/7=2,8=2,9=2,10=2,28=1/1;
 99/5=1,9=1/99;
 Leave Link    1 at Wed Feb  8 14:40:44 2023, MaxMem=   754974720 cpu:               0.2 elap:               0.1
 (Enter /opt/cluster/programs/g16-c.01/g16/l101.exe)
 --------------
 Gaussian input
 --------------
 Symbolic Z-matrix:
 Charge =  0 Multiplicity = 1
 O                     0.        0.11751   0. 
 H                     0.71834  -0.43951   0. 
 H                    -0.79771  -0.50034   0. 
 
 ITRead=  0  0  0
 MicOpt= -1 -1 -1
 NAtoms=      3 NQM=        3 NQMF=       0 NMMI=      0 NMMIF=      0
                NMic=       0 NMicF=      0.
                    Isotopes and Nuclear Properties:
 (Nuclear quadrupole moments (NQMom) in fm**2, nuclear magnetic moments (NMagM)
  in nuclear magnetons)

  Atom         1           2           3
 IAtWgt=          16           1           1
 AtmWgt=  15.9949146   1.0078250   1.0078250
 NucSpn=           0           1           1
 AtZEff=  -0.0000000  -0.0000000  -0.0000000
 NQMom=    0.0000000   0.0000000   0.0000000
 NMagM=    0.0000000   2.7928460   2.7928460
 AtZNuc=   8.0000000   1.0000000   1.0000000
 Leave Link  101 at Wed Feb  8 14:40:44 2023, MaxMem=   754974720 cpu:               0.5 elap:               0.2
 (Enter /opt/cluster/programs/g16-c.01/g16/l202.exe)
                          Input orientation:                          
 ---------------------------------------------------------------------
 Center     Atomic      Atomic             Coordinates (Angstroms)
 Number     Number       Type             X           Y           Z
 ---------------------------------------------------------------------
      1          8           0        0.000000    0.117510    0.000000
      2          1           0        0.718337   -0.439511    0.000000
      3          1           0       -0.797710   -0.500341    0.000000
 ---------------------------------------------------------------------
                    Distance matrix (angstroms):
                    1          2          3
     1  O    0.000000
     2  H    0.909000   0.000000
     3  H    1.009000   1.517267   0.000000
 Stoichiometry    H2O
 Framework group  CS[SG(H2O)]
 Deg. of freedom     3
 Full point group                 CS      NOp   2
 Largest Abelian subgroup         CS      NOp   2
 Largest concise Abelian subgroup C1      NOp   1
                         Standard orientation:                         
 ---------------------------------------------------------------------
 Center     Atomic      Atomic             Coordinates (Angstroms)
 Number     Number       Type             X           Y           Z
 ---------------------------------------------------------------------
      1          8           0        0.000000    0.117755    0.000000
      2          1           0        0.754250   -0.389580    0.000000
      3          1           0       -0.754250   -0.552460    0.000000
 ---------------------------------------------------------------------
 Rotational constants (GHZ):         834.5416283         430.1030815         283.8259024
 Leave Link  202 at Wed Feb  8 14:40:44 2023, MaxMem=   754974720 cpu:               0.0 elap:               0.0
 (Enter /opt/cluster/programs/g16-c.01/g16/l301.exe)
 Standard basis: 6-311G(d,p) (5D, 7F)
 Ernie: Thresh=  0.10000D-02 Tol=  0.10000D-05 Strict=F.
 There are    24 symmetry adapted cartesian basis functions of A'  symmetry.
 There are     7 symmetry adapted cartesian basis functions of A"  symmetry.
 There are    23 symmetry adapted basis functions of A'  symmetry.
 There are     7 symmetry adapted basis functions of A"  symmetry.
    30 basis functions,    48 primitive gaussians,    31 cartesian basis functions
     5 alpha electrons        5 beta electrons
       nuclear repulsion energy         9.2016519207 Hartrees.
 IExCor= 4639 DFT=T Ex+Corr=wB97XD ExCW=0 ScaHFX=  1.000000
 ScaDFX=  1.000000  1.000000  1.000000  1.000000 ScalE2=  1.000000  1.000000
 IRadAn=      5 IRanWt=     -1 IRanGd=            0 ICorTp=0 IEmpDi=121
 HFx  wShort=  0.000000 wLong=  0.200000 cFull=  0.222036 cShort=  0.000000 cLong=  0.777964
 DFx  wShort=  0.000000 wLong=  0.200000 cFull=  0.000000 cShort=  0.000000 cLong=  1.000000
 NAtoms=    3 NActive=    3 NUniq=    3 SFac= 1.00D+00 NAtFMM=   60 NAOKFM=F Big=F
 Integral buffers will be    131072 words long.
 Raffenetti 2 integral format.
 Two-electron integral symmetry is turned on.
 R6Disp:  Grimme-D2 Dispersion energy=       -0.0000271760 Hartrees.
 Nuclear repulsion after empirical dispersion term =        9.2016247447 Hartrees.
 Leave Link  301 at Wed Feb  8 14:40:44 2023, MaxMem=   754974720 cpu:               0.1 elap:               0.1
 (Enter /opt/cluster/programs/g16-c.01/g16/l302.exe)
 NPDir=0 NMtPBC=     1 NCelOv=     1 NCel=       1 NClECP=     1 NCelD=      1
         NCelK=      1 NCelE2=     1 NClLst=     1 CellRange=     0.0.
 One-electron integrals computed using PRISM.
 One-electron integral symmetry used in STVInt
 NBasis=    30 RedAO= T EigKep=  1.73D-02  NBF=    23     7
 NBsUse=    30 1.00D-06 EigRej= -1.00D+00 NBFU=    23     7
 Precomputing XC quadrature grid using
 IXCGrd= 4 IRadAn=           5 IRanWt=          -1 IRanGd=           0 AccXCQ= 0.00D+00.
 Generated NRdTot=       0 NPtTot=           0 NUsed=           0 NTot=          32
 NSgBfM=    31    31    31    31    31 MxSgAt=     3 MxSgA2=     3.
 Leave Link  302 at Wed Feb  8 14:40:45 2023, MaxMem=   754974720 cpu:               1.2 elap:               0.4
 (Enter /opt/cluster/programs/g16-c.01/g16/l303.exe)
 DipDrv:  MaxL=1.
 Leave Link  303 at Wed Feb  8 14:40:45 2023, MaxMem=   754974720 cpu:               0.2 elap:               0.1
 (Enter /opt/cluster/programs/g16-c.01/g16/l401.exe)
 ExpMin= 1.03D-01 ExpMax= 8.59D+03 ExpMxC= 1.30D+03 IAcc=3 IRadAn=         5 AccDes= 0.00D+00
 Harris functional with IExCor= 4639 and IRadAn=       5 diagonalized for initial guess.
 HarFok:  IExCor= 4639 AccDes= 0.00D+00 IRadAn=         5 IDoV= 1 UseB2=F ITyADJ=14
 ICtDFT=  3500011 ScaDFX=  1.000000  1.000000  1.000000  1.000000
 FoFCou: FMM=F IPFlag=           0 FMFlag=      100000 FMFlg1=           0
         NFxFlg=           0 DoJE=T BraDBF=F KetDBF=T FulRan=T
         wScrn=  0.000000 ICntrl=       500 IOpCl=  0 I1Cent=   200000004 NGrid=           0
         NMat0=    1 NMatS0=      1 NMatT0=    0 NMatD0=    1 NMtDS0=    0 NMtDT0=    0
 Petite list used in FoFCou.
 Harris En= -73.6078775272105    
 JPrj=0 DoOrth=F DoCkMO=F.
 Initial guess orbital symmetries:
       Occupied  (A') (A') (A') (A') (A")
       Virtual   (A') (A') (A') (A') (A') (A") (A') (A') (A') (A")
                 (A") (A') (A') (A') (A') (A') (A") (A") (A') (A')
                 (A') (A") (A') (A') (A')
 The electronic state of the initial guess is 1-A'.
 Leave Link  401 at Wed Feb  8 14:40:46 2023, MaxMem=   754974720 cpu:               2.0 elap:               0.9
 (Enter /opt/cluster/programs/g16-c.01/g16/l502.exe)
 Keep R1 ints in memory in symmetry-blocked form, NReq=3688183.
 FoFCou: FMM=F IPFlag=           0 FMFlag=           0 FMFlg1=           0
         NFxFlg=           0 DoJE=F BraDBF=F KetDBF=F FulRan=T
         wScrn=  0.000000 ICntrl=       600 IOpCl=  0 I1Cent=           0 NGrid=           0
         NMat0=    1 NMatS0=    465 NMatT0=    0 NMatD0=    1 NMtDS0=    0 NMtDT0=    0
 Petite list used in FoFCou.
 Closed shell SCF:
 Using DIIS extrapolation, IDIIS=  1040.
 NGot=   754974720 LenX=   754911268 LenY=   754909866
 Requested convergence on RMS density matrix=1.00D-08 within 200 cycles.
 Requested convergence on MAX density matrix=1.00D-06.
 Requested convergence on             energy=1.00D-06.
 No special actions if energy rises.
 Integral accuracy reduced to 1.0D-05 until final iterations.

 Cycle   1  Pass 0  IDiag  1:
 E= -76.4080394832842    
 DIIS: error= 7.94D-02 at cycle   1 NSaved=   1.
 NSaved= 1 IEnMin= 1 EnMin= -76.4080394832842     IErMin= 1 ErrMin= 7.94D-02
 ErrMax= 7.94D-02  0.00D+00 EMaxC= 1.00D-01 BMatC= 1.29D-01 BMatP= 1.29D-01
 IDIUse=3 WtCom= 2.06D-01 WtEn= 7.94D-01
 Coeff-Com:  0.100D+01
 Coeff-En:   0.100D+01
 Coeff:      0.100D+01
 Gap=     0.490 Goal=   None    Shift=    0.000
 GapD=    0.490 DampG=2.000 DampE=0.500 DampFc=1.0000 IDamp=-1.
 RMSDP=2.58D-03 MaxDP=2.28D-02              OVMax= 3.69D-02

 Cycle   2  Pass 0  IDiag  1:
 E= -76.4178660963829     Delta-E=       -0.009826613099 Rises=F Damp=F
 DIIS: error= 6.30D-03 at cycle   2 NSaved=   2.
 NSaved= 2 IEnMin= 2 EnMin= -76.4178660963829     IErMin= 2 ErrMin= 6.30D-03
 ErrMax= 6.30D-03  0.00D+00 EMaxC= 1.00D-01 BMatC= 8.04D-04 BMatP= 1.29D-01
 IDIUse=3 WtCom= 9.37D-01 WtEn= 6.30D-02
 Coeff-Com:  0.426D-01 0.957D+00
 Coeff-En:   0.000D+00 0.100D+01
 Coeff:      0.399D-01 0.960D+00
 Gap=     0.510 Goal=   None    Shift=    0.000
 RMSDP=6.88D-04 MaxDP=8.28D-03 DE=-9.83D-03 OVMax= 8.63D-03

 Cycle   3  Pass 0  IDiag  1:
 E= -76.4180720385764     Delta-E=       -0.000205942193 Rises=F Damp=F
 DIIS: error= 4.30D-03 at cycle   3 NSaved=   3.
 NSaved= 3 IEnMin= 3 EnMin= -76.4180720385764     IErMin= 3 ErrMin= 4.30D-03
 ErrMax= 4.30D-03  0.00D+00 EMaxC= 1.00D-01 BMatC= 3.74D-04 BMatP= 8.04D-04
 IDIUse=3 WtCom= 9.57D-01 WtEn= 4.30D-02
 Coeff-Com:  0.200D-01 0.427D+00 0.553D+00
 Coeff-En:   0.000D+00 0.295D+00 0.705D+00
 Coeff:      0.191D-01 0.421D+00 0.560D+00
 Gap=     0.502 Goal=   None    Shift=    0.000
 RMSDP=3.30D-04 MaxDP=4.03D-03 DE=-2.06D-04 OVMax= 4.65D-03

 Cycle   4  Pass 0  IDiag  1:
 E= -76.4182950379663     Delta-E=       -0.000222999390 Rises=F Damp=F
 DIIS: error= 7.44D-04 at cycle   4 NSaved=   4.
 NSaved= 4 IEnMin= 4 EnMin= -76.4182950379663     IErMin= 4 ErrMin= 7.44D-04
 ErrMax= 7.44D-04  0.00D+00 EMaxC= 1.00D-01 BMatC= 1.10D-05 BMatP= 3.74D-04
 IDIUse=3 WtCom= 9.93D-01 WtEn= 7.44D-03
 Coeff-Com:  0.191D-02 0.549D-01 0.172D+00 0.771D+00
 Coeff-En:   0.000D+00 0.000D+00 0.000D+00 0.100D+01
 Coeff:      0.189D-02 0.545D-01 0.171D+00 0.773D+00
 Gap=     0.503 Goal=   None    Shift=    0.000
 RMSDP=5.74D-05 MaxDP=8.08D-04 DE=-2.23D-04 OVMax= 6.66D-04

 Cycle   5  Pass 0  IDiag  1:
 E= -76.4183018199531     Delta-E=       -0.000006781987 Rises=F Damp=F
 DIIS: error= 6.05D-05 at cycle   5 NSaved=   5.
 NSaved= 5 IEnMin= 5 EnMin= -76.4183018199531     IErMin= 5 ErrMin= 6.05D-05
 ErrMax= 6.05D-05  0.00D+00 EMaxC= 1.00D-01 BMatC= 8.74D-08 BMatP= 1.10D-05
 IDIUse=1 WtCom= 1.00D+00 WtEn= 0.00D+00
 Coeff-Com: -0.753D-03-0.195D-01-0.255D-01-0.234D-01 0.107D+01
 Coeff:     -0.753D-03-0.195D-01-0.255D-01-0.234D-01 0.107D+01
 Gap=     0.503 Goal=   None    Shift=    0.000
 RMSDP=1.79D-05 MaxDP=1.82D-04 DE=-6.78D-06 OVMax= 2.95D-04

 Cycle   6  Pass 0  IDiag  1:
 E= -76.4183019843165     Delta-E=       -0.000000164363 Rises=F Damp=F
 DIIS: error= 1.21D-05 at cycle   6 NSaved=   6.
 NSaved= 6 IEnMin= 6 EnMin= -76.4183019843165     IErMin= 6 ErrMin= 1.21D-05
 ErrMax= 1.21D-05  0.00D+00 EMaxC= 1.00D-01 BMatC= 3.74D-09 BMatP= 8.74D-08
 IDIUse=1 WtCom= 1.00D+00 WtEn= 0.00D+00
 Coeff-Com:  0.662D-04 0.129D-02 0.212D-02-0.127D-01-0.127D+00 0.114D+01
 Coeff:      0.662D-04 0.129D-02 0.212D-02-0.127D-01-0.127D+00 0.114D+01
 Gap=     0.503 Goal=   None    Shift=    0.000
 RMSDP=4.11D-06 MaxDP=4.72D-05 DE=-1.64D-07 OVMax= 7.08D-05

 Initial convergence to 1.0D-05 achieved.  Increase integral accuracy.
 Cycle   7  Pass 1  IDiag  1:
 E= -76.4183059918872     Delta-E=       -0.000004007571 Rises=F Damp=F
 DIIS: error= 8.87D-06 at cycle   1 NSaved=   1.
 NSaved= 1 IEnMin= 1 EnMin= -76.4183059918872     IErMin= 1 ErrMin= 8.87D-06
 ErrMax= 8.87D-06  0.00D+00 EMaxC= 1.00D-01 BMatC= 3.21D-09 BMatP= 3.21D-09
 IDIUse=1 WtCom= 1.00D+00 WtEn= 0.00D+00
 Coeff-Com:  0.100D+01
 Coeff:      0.100D+01
 Gap=     0.503 Goal=   None    Shift=    0.000
 RMSDP=4.11D-06 MaxDP=4.72D-05 DE=-4.01D-06 OVMax= 1.80D-05

 Cycle   8  Pass 1  IDiag  1:
 E= -76.4183059947976     Delta-E=       -0.000000002910 Rises=F Damp=F
 DIIS: error= 1.41D-06 at cycle   2 NSaved=   2.
 NSaved= 2 IEnMin= 2 EnMin= -76.4183059947976     IErMin= 2 ErrMin= 1.41D-06
 ErrMax= 1.41D-06  0.00D+00 EMaxC= 1.00D-01 BMatC= 7.61D-11 BMatP= 3.21D-09
 IDIUse=1 WtCom= 1.00D+00 WtEn= 0.00D+00
 Coeff-Com: -0.569D-01 0.106D+01
 Coeff:     -0.569D-01 0.106D+01
 Gap=     0.503 Goal=   None    Shift=    0.000
 RMSDP=3.95D-07 MaxDP=3.50D-06 DE=-2.91D-09 OVMax= 5.79D-06

 Cycle   9  Pass 1  IDiag  1:
 E= -76.4183059948922     Delta-E=       -0.000000000095 Rises=F Damp=F
 DIIS: error= 7.98D-07 at cycle   3 NSaved=   3.
 NSaved= 3 IEnMin= 3 EnMin= -76.4183059948922     IErMin= 3 ErrMin= 7.98D-07
 ErrMax= 7.98D-07  0.00D+00 EMaxC= 1.00D-01 BMatC= 2.48D-11 BMatP= 7.61D-11
 IDIUse=1 WtCom= 1.00D+00 WtEn= 0.00D+00
 Coeff-Com: -0.384D-01 0.373D+00 0.665D+00
 Coeff:     -0.384D-01 0.373D+00 0.665D+00
 Gap=     0.503 Goal=   None    Shift=    0.000
 RMSDP=1.20D-07 MaxDP=1.74D-06 DE=-9.46D-11 OVMax= 1.98D-06

 Cycle  10  Pass 1  IDiag  1:
 E= -76.4183059949093     Delta-E=       -0.000000000017 Rises=F Damp=F
 DIIS: error= 3.99D-07 at cycle   4 NSaved=   4.
 NSaved= 4 IEnMin= 4 EnMin= -76.4183059949093     IErMin= 4 ErrMin= 3.99D-07
 ErrMax= 3.99D-07  0.00D+00 EMaxC= 1.00D-01 BMatC= 3.01D-12 BMatP= 2.48D-11
 IDIUse=1 WtCom= 1.00D+00 WtEn= 0.00D+00
 Coeff-Com: -0.109D-01 0.414D-01 0.246D+00 0.723D+00
 Coeff:     -0.109D-01 0.414D-01 0.246D+00 0.723D+00
 Gap=     0.503 Goal=   None    Shift=    0.000
 RMSDP=4.09D-08 MaxDP=4.12D-07 DE=-1.71D-11 OVMax= 5.92D-07

 Cycle  11  Pass 1  IDiag  1:
 E= -76.4183059949120     Delta-E=       -0.000000000003 Rises=F Damp=F
 DIIS: error= 6.52D-08 at cycle   5 NSaved=   5.
 NSaved= 5 IEnMin= 5 EnMin= -76.4183059949120     IErMin= 5 ErrMin= 6.52D-08
 ErrMax= 6.52D-08  0.00D+00 EMaxC= 1.00D-01 BMatC= 1.04D-13 BMatP= 3.01D-12
 IDIUse=1 WtCom= 1.00D+00 WtEn= 0.00D+00
 Coeff-Com:  0.394D-02-0.385D-01-0.761D-01-0.519D-03 0.111D+01
 Coeff:      0.394D-02-0.385D-01-0.761D-01-0.519D-03 0.111D+01
 Gap=     0.503 Goal=   None    Shift=    0.000
 RMSDP=2.68D-08 MaxDP=2.97D-07 DE=-2.70D-12 OVMax= 5.47D-07

 Cycle  12  Pass 1  IDiag  1:
 E= -76.4183059949123     Delta-E=       -0.000000000000 Rises=F Damp=F
 DIIS: error= 1.41D-08 at cycle   6 NSaved=   6.
 NSaved= 6 IEnMin= 6 EnMin= -76.4183059949123     IErMin= 6 ErrMin= 1.41D-08
 ErrMax= 1.41D-08  0.00D+00 EMaxC= 1.00D-01 BMatC= 3.80D-15 BMatP= 1.04D-13
 IDIUse=1 WtCom= 1.00D+00 WtEn= 0.00D+00
 Coeff-Com:  0.244D-03-0.226D-03-0.718D-03-0.366D-01-0.639D-01 0.110D+01
 Coeff:      0.244D-03-0.226D-03-0.718D-03-0.366D-01-0.639D-01 0.110D+01
 Gap=     0.503 Goal=   None    Shift=    0.000
 RMSDP=4.29D-09 MaxDP=3.83D-08 DE=-3.41D-13 OVMax= 8.66D-08

 SCF Done:  E(RwB97XD) =  -76.4183059949     A.U. after   12 cycles
            NFock= 12  Conv=0.43D-08     -V/T= 2.0014
 KE= 7.631347856201D+01 PE=-1.995557449993D+02 EE= 3.762233569769D+01
 Leave Link  502 at Wed Feb  8 14:40:46 2023, MaxMem=   754974720 cpu:               2.2 elap:               0.6
 (Enter /opt/cluster/programs/g16-c.01/g16/l601.exe)
 Copying SCF densities to generalized density rwf, IOpCl= 0 IROHF=0.

 **********************************************************************

            Population analysis using the SCF Density.

 **********************************************************************

 Orbital symmetries:
       Occupied  (A') (A') (A') (A') (A")
       Virtual   (A') (A') (A') (A') (A') (A") (A') (A') (A') (A")
                 (A") (A') (A') (A') (A') (A') (A") (A") (A') (A')
                 (A') (A") (A') (A') (A')
 The electronic state is 1-A'.
 Alpha  occ. eigenvalues --  -19.22546  -1.10487  -0.61002  -0.46270  -0.38651
 Alpha virt. eigenvalues --    0.11677   0.19301   0.45264   0.52417   0.85123
 Alpha virt. eigenvalues --    0.85465   0.95255   1.15585   1.33537   1.35184
 Alpha virt. eigenvalues --    1.54953   1.74293   1.99639   2.16118   2.39340
 Alpha virt. eigenvalues --    2.57105   3.17081   3.28324   3.41609   3.68318
 Alpha virt. eigenvalues --    3.93865   4.88365   5.28845   5.75277  49.99729
          Condensed to atoms (all electrons):
               1          2          3
     1  O    7.852447   0.327636   0.308792
     2  H    0.327636   0.458552  -0.031544
     3  H    0.308792  -0.031544   0.479233
 Mulliken charges:
               1
     1  O   -0.488875
     2  H    0.245356
     3  H    0.243519
 Sum of Mulliken charges =   0.00000
 Mulliken charges with hydrogens summed into heavy atoms:
               1
     1  O    0.000000
 Electronic spatial extent (au):  <R**2>=             19.0347
 Charge=             -0.0000 electrons
 Dipole moment (field-independent basis, Debye):
    X=              0.0855    Y=             -2.0962    Z=              0.0000  Tot=              2.0980
 Quadrupole moment (field-independent basis, Debye-Ang):
   XX=             -4.2394   YY=             -6.0011   ZZ=             -7.1690
   XY=              0.2491   XZ=              0.0000   YZ=              0.0000
 Traceless Quadrupole moment (field-independent basis, Debye-Ang):
   XX=              1.5637   YY=             -0.1980   ZZ=             -1.3658
   XY=              0.2491   XZ=              0.0000   YZ=              0.0000
 Octapole moment (field-independent basis, Debye-Ang**2):
  XXX=              0.1960  YYY=             -1.2784  ZZZ=              0.0000  XYY=             -0.1466
  XXY=             -1.2570  XXZ=              0.0000  XZZ=              0.0721  YZZ=             -0.3289
  YYZ=              0.0000  XYZ=              0.0000
 Hexadecapole moment (field-independent basis, Debye-Ang**3):
 XXXX=             -5.8235 YYYY=             -6.2790 ZZZZ=             -5.2420 XXXY=             -0.0586
 XXXZ=              0.0000 YYYX=             -0.0242 YYYZ=              0.0000 ZZZX=              0.0000
 ZZZY=              0.0000 XXYY=             -1.6734 XXZZ=             -2.1207 YYZZ=             -1.9818
 XXYZ=              0.0000 YYXZ=              0.0000 ZZXY=             -0.0763
 N-N= 9.201624744696D+00 E-N=-1.995557451736D+02  KE= 7.631347856201D+01
 Symmetry A'   KE= 7.167503599313D+01
 Symmetry A"   KE= 4.638442568884D+00
 No NMR shielding tensors so no spin-rotation constants.
 Leave Link  601 at Wed Feb  8 14:40:47 2023, MaxMem=   754974720 cpu:               0.9 elap:               0.5
 (Enter /opt/cluster/programs/g16-c.01/g16/l9999.exe)
 Unable to Open any file for archive entry.
 1\1\GINC-NODE60\SP\RwB97XD\6-311G(d,p)\H2O1\BOITTIER\08-Feb-2023\0\\#P
  wB97XD/6-311g** scf(maxcycle=200)\\Gaussian input\\0,1\O,0,0.,0.11751
 ,0.\H,0,0.7183372325,-0.4395112028,0.\H,0,-0.7977100455,-0.5003408585,
 0.\\Version=ES64L-G16RevC.01\State=1-A'\HF=-76.418306\RMSD=4.290e-09\D
 ipole=-0.0220119,-0.8251132,0.\Quadrupole=1.1815643,-0.1661313,-1.0154
 33,0.0954343,0.,0.\PG=CS [SG(H2O1)]\\@
 The archive entry for this job was punched.


 Some scientists claim that hydrogen, because it is so
 plentiful, is the basic building block of the universe. 
 I dispute that. I say that stupidity is far more
 abundant than hydrogen, and THAT is the basic building 
 block of the universe.
                   --Frank Zappa
 Job cpu time:       0 days  0 hours  0 minutes  7.6 seconds.
 Elapsed time:       0 days  0 hours  0 minutes  3.0 seconds.
 File lengths (MBytes):  RWF=      6 Int=      0 D2E=      0 Chk=      1 Scr=      1
 Normal termination of Gaussian 16 at Wed Feb  8 14:40:47 2023.
