 Entering Gaussian System, Link 0=/opt/cluster/programs/g16-c.01/g16/g16
 Input=/scratch/boittier/jobs/tmp.7261664/gaussian_1_water_ccsdt_atz.com
 Output=/scratch/boittier/jobs/tmp.7261664/gaussian_1_water_ccsdt_atz.out
 Initial command:
 /opt/cluster/programs/g16-c.01/g16/l1.exe "/scratch/boittier/jobs/tmp.7261664/Gau-49286.inp" -scrdir="/scratch/boittier/jobs/tmp.7261664/"
 Entering Link 1 = /opt/cluster/programs/g16-c.01/g16/l1.exe PID=     49287.
  
 Copyright (c) 1988-2019, Gaussian, Inc.  All Rights Reserved.
  
 This is part of the Gaussian(R) 16 program.  It is based on
 the Gaussian(R) 09 system (copyright 2009, Gaussian, Inc.),
 the Gaussian(R) 03 system (copyright 2003, Gaussian, Inc.),
 the Gaussian(R) 98 system (copyright 1998, Gaussian, Inc.),
 the Gaussian(R) 94 system (copyright 1995, Gaussian, Inc.),
 the Gaussian 92(TM) system (copyright 1992, Gaussian, Inc.),
 the Gaussian 90(TM) system (copyright 1990, Gaussian, Inc.),
 the Gaussian 88(TM) system (copyright 1988, Gaussian, Inc.),
 the Gaussian 86(TM) system (copyright 1986, Carnegie Mellon
 University), and the Gaussian 82(TM) system (copyright 1983,
 Carnegie Mellon University). Gaussian is a federally registered
 trademark of Gaussian, Inc.
  
 This software contains proprietary and confidential information,
 including trade secrets, belonging to Gaussian, Inc.
  
 This software is provided under written license and may be
 used, copied, transmitted, or stored only in accord with that
 written license.
  
 The following legend is applicable only to US Government
 contracts under FAR:
  
                    RESTRICTED RIGHTS LEGEND
  
 Use, reproduction and disclosure by the US Government is
 subject to restrictions as set forth in subparagraphs (a)
 and (c) of the Commercial Computer Software - Restricted
 Rights clause in FAR 52.227-19.
  
 Gaussian, Inc.
 340 Quinnipiac St., Bldg. 40, Wallingford CT 06492
  
  
 ---------------------------------------------------------------
 Warning -- This program may not be used in any manner that
 competes with the business of Gaussian, Inc. or will provide
 assistance to any competitor of Gaussian, Inc.  The licensee
 of this program is prohibited from giving any competitor of
 Gaussian, Inc. access to this program.  By using this program,
 the user acknowledges that Gaussian, Inc. is engaged in the
 business of creating and licensing software in the field of
 computational chemistry and represents and warrants to the
 licensee that it is not a competitor of Gaussian, Inc. and that
 it will not use this program in any manner prohibited above.
 ---------------------------------------------------------------
  

 Cite this work as:
 Gaussian 16, Revision C.01,
 M. J. Frisch, G. W. Trucks, H. B. Schlegel, G. E. Scuseria, 
 M. A. Robb, J. R. Cheeseman, G. Scalmani, V. Barone, 
 G. A. Petersson, H. Nakatsuji, X. Li, M. Caricato, A. V. Marenich, 
 J. Bloino, B. G. Janesko, R. Gomperts, B. Mennucci, H. P. Hratchian, 
 J. V. Ortiz, A. F. Izmaylov, J. L. Sonnenberg, D. Williams-Young, 
 F. Ding, F. Lipparini, F. Egidi, J. Goings, B. Peng, A. Petrone, 
 T. Henderson, D. Ranasinghe, V. G. Zakrzewski, J. Gao, N. Rega, 
 G. Zheng, W. Liang, M. Hada, M. Ehara, K. Toyota, R. Fukuda, 
 J. Hasegawa, M. Ishida, T. Nakajima, Y. Honda, O. Kitao, H. Nakai, 
 T. Vreven, K. Throssell, J. A. Montgomery, Jr., J. E. Peralta, 
 F. Ogliaro, M. J. Bearpark, J. J. Heyd, E. N. Brothers, K. N. Kudin, 
 V. N. Staroverov, T. A. Keith, R. Kobayashi, J. Normand, 
 K. Raghavachari, A. P. Rendell, J. C. Burant, S. S. Iyengar, 
 J. Tomasi, M. Cossi, J. M. Millam, M. Klene, C. Adamo, R. Cammi, 
 J. W. Ochterski, R. L. Martin, K. Morokuma, O. Farkas, 
 J. B. Foresman, and D. J. Fox, Gaussian, Inc., Wallingford CT, 2019.
 
 ******************************************
 Gaussian 16:  ES64L-G16RevC.01  3-Jul-2019
                 8-Feb-2023 
 ******************************************
 %nproc=4
 Will use up to    4 processors via shared memory.
 %mem=5760MB
 %chk=gaussian_1_water_ccsdt_atz.chk
 ----------------------------------------
 #P CCSD(T)/aug-cc-pVTZ scf(maxcycle=200)
 ----------------------------------------
 1/38=1,172=1/1;
 2/12=2,17=6,18=5,40=1/2;
 3/5=16,6=1,7=10,11=9,25=1,30=1/1,2,3;
 4//1;
 5/5=2,7=200,38=5/2;
 8/6=4,9=120000,10=1/1,4;
 9/5=7,14=2/13;
 6/7=2,8=2,9=2,10=2/1;
 99/5=1,9=1/99;
 Leave Link    1 at Wed Feb  8 13:46:38 2023, MaxMem=   754974720 cpu:               0.8 elap:               1.8
 (Enter /opt/cluster/programs/g16-c.01/g16/l101.exe)
 --------------
 Gaussian input
 --------------
 Symbolic Z-matrix:
 Charge =  0 Multiplicity = 1
 O                     0.        0.11751   0. 
 H                     0.71834  -0.43951   0. 
 H                    -0.51147  -0.63394   0. 
 
 ITRead=  0  0  0
 MicOpt= -1 -1 -1
 NAtoms=      3 NQM=        3 NQMF=       0 NMMI=      0 NMMIF=      0
                NMic=       0 NMicF=      0.
                    Isotopes and Nuclear Properties:
 (Nuclear quadrupole moments (NQMom) in fm**2, nuclear magnetic moments (NMagM)
  in nuclear magnetons)

  Atom         1           2           3
 IAtWgt=          16           1           1
 AtmWgt=  15.9949146   1.0078250   1.0078250
 NucSpn=           0           1           1
 AtZEff=  -0.0000000  -0.0000000  -0.0000000
 NQMom=    0.0000000   0.0000000   0.0000000
 NMagM=    0.0000000   2.7928460   2.7928460
 AtZNuc=   8.0000000   1.0000000   1.0000000
 Leave Link  101 at Wed Feb  8 13:46:43 2023, MaxMem=   754974720 cpu:               0.7 elap:               0.2
 (Enter /opt/cluster/programs/g16-c.01/g16/l202.exe)
                          Input orientation:                          
 ---------------------------------------------------------------------
 Center     Atomic      Atomic             Coordinates (Angstroms)
 Number     Number       Type             X           Y           Z
 ---------------------------------------------------------------------
      1          8           0        0.000000    0.117510    0.000000
      2          1           0        0.718337   -0.439511    0.000000
      3          1           0       -0.511473   -0.633939    0.000000
 ---------------------------------------------------------------------
                    Distance matrix (angstroms):
                    1          2          3
     1  O    0.000000
     2  H    0.909000   0.000000
     3  H    0.909000   1.245085   0.000000
 Stoichiometry    H2O
 Framework group  C2V[C2(O),SGV(H2)]
 Deg. of freedom     2
 Full point group                 C2V     NOp   4
 Largest Abelian subgroup         C2V     NOp   4
 Largest concise Abelian subgroup C2      NOp   2
                         Standard orientation:                         
 ---------------------------------------------------------------------
 Center     Atomic      Atomic             Coordinates (Angstroms)
 Number     Number       Type             X           Y           Z
 ---------------------------------------------------------------------
      1          8           0       -0.000000    0.000000    0.132472
      2          1           0        0.000000    0.622542   -0.529889
      3          1           0       -0.000000   -0.622542   -0.529889
 ---------------------------------------------------------------------
 Rotational constants (GHZ):         646.9403011         643.5141130         322.6113294
 Leave Link  202 at Wed Feb  8 13:46:48 2023, MaxMem=   754974720 cpu:               0.0 elap:               0.0
 (Enter /opt/cluster/programs/g16-c.01/g16/l301.exe)
 Standard basis: Aug-CC-pVTZ (5D, 7F)
 Ernie: Thresh=  0.10000D-02 Tol=  0.10000D-05 Strict=F.
 Ernie:  3 primitive shells out of 52 were deleted.
 There are    42 symmetry adapted cartesian basis functions of A1  symmetry.
 There are    12 symmetry adapted cartesian basis functions of A2  symmetry.
 There are    20 symmetry adapted cartesian basis functions of B1  symmetry.
 There are    31 symmetry adapted cartesian basis functions of B2  symmetry.
 There are    35 symmetry adapted basis functions of A1  symmetry.
 There are    12 symmetry adapted basis functions of A2  symmetry.
 There are    18 symmetry adapted basis functions of B1  symmetry.
 There are    27 symmetry adapted basis functions of B2  symmetry.
    92 basis functions,   126 primitive gaussians,   105 cartesian basis functions
     5 alpha electrons        5 beta electrons
       nuclear repulsion energy         9.7394633532 Hartrees.
 IExCor=    0 DFT=F Ex=HF Corr=None ExCW=0 ScaHFX=  1.000000
 ScaDFX=  1.000000  1.000000  1.000000  1.000000 ScalE2=  1.000000  1.000000
 IRadAn=      5 IRanWt=     -1 IRanGd=            0 ICorTp=0 IEmpDi=  4
 NAtoms=    3 NActive=    3 NUniq=    2 SFac= 2.25D+00 NAtFMM=   60 NAOKFM=F Big=F
 Integral buffers will be    131072 words long.
 Raffenetti 1 integral format.
 Two-electron integral symmetry is turned on.
 Leave Link  301 at Wed Feb  8 13:46:54 2023, MaxMem=   754974720 cpu:               0.3 elap:               0.1
 (Enter /opt/cluster/programs/g16-c.01/g16/l302.exe)
 NPDir=0 NMtPBC=     1 NCelOv=     1 NCel=       1 NClECP=     1 NCelD=      1
         NCelK=      1 NCelE2=     1 NClLst=     1 CellRange=     0.0.
 One-electron integrals computed using PRISM.
 One-electron integral symmetry used in STVInt
 NBasis=    92 RedAO= T EigKep=  2.81D-04  NBF=    35    12    18    27
 NBsUse=    92 1.00D-06 EigRej= -1.00D+00 NBFU=    35    12    18    27
 Leave Link  302 at Wed Feb  8 13:47:01 2023, MaxMem=   754974720 cpu:               0.7 elap:               0.2
 (Enter /opt/cluster/programs/g16-c.01/g16/l303.exe)
 DipDrv:  MaxL=1.
 Leave Link  303 at Wed Feb  8 13:47:08 2023, MaxMem=   754974720 cpu:               0.3 elap:               0.1
 (Enter /opt/cluster/programs/g16-c.01/g16/l401.exe)
 ExpMin= 2.53D-02 ExpMax= 1.53D+04 ExpMxC= 5.22D+02 IAcc=3 IRadAn=         5 AccDes= 0.00D+00
 Harris functional with IExCor=  205 and IRadAn=       5 diagonalized for initial guess.
 HarFok:  IExCor=  205 AccDes= 0.00D+00 IRadAn=         5 IDoV= 1 UseB2=F ITyADJ=14
 ICtDFT=  3500011 ScaDFX=  1.000000  1.000000  1.000000  1.000000
 FoFCou: FMM=F IPFlag=           0 FMFlag=      100000 FMFlg1=           0
         NFxFlg=           0 DoJE=T BraDBF=F KetDBF=T FulRan=T
         wScrn=  0.000000 ICntrl=       500 IOpCl=  0 I1Cent=   200000004 NGrid=           0
         NMat0=    1 NMatS0=      1 NMatT0=    0 NMatD0=    1 NMtDS0=    0 NMtDT0=    0
 Petite list used in FoFCou.
 Harris En= -76.1404744831239    
 JPrj=0 DoOrth=F DoCkMO=F.
 Initial guess orbital symmetries:
       Occupied  (A1) (A1) (B2) (A1) (B1)
       Virtual   (A1) (B2) (A1) (B1) (A1) (B2) (B2) (A1) (A2) (B1)
                 (A1) (A1) (B2) (B2) (B2) (A1) (A1) (B1) (A2) (B1)
                 (A1) (A1) (B2) (B1) (A1) (A2) (B2) (A1) (B2) (B1)
                 (B2) (B2) (A2) (A1) (A1) (B1) (A2) (A1) (B2) (B2)
                 (A1) (B1) (A2) (A1) (A1) (B1) (B2) (A1) (B2) (B1)
                 (B2) (A1) (A2) (A1) (B2) (B1) (B1) (A1) (A2) (B1)
                 (B2) (A1) (A2) (B2) (A1) (B2) (B2) (A1) (A2) (B1)
                 (A1) (B2) (A1) (B2) (B1) (B1) (A2) (B2) (A1) (B1)
                 (A1) (A2) (A1) (A1) (B2) (B2) (A1)
 The electronic state of the initial guess is 1-A1.
 Leave Link  401 at Wed Feb  8 13:47:16 2023, MaxMem=   754974720 cpu:               6.1 elap:               2.0
 (Enter /opt/cluster/programs/g16-c.01/g16/l502.exe)
 Keep R1 ints in memory in symmetry-blocked form, NReq=11496777.
 FoFCou: FMM=F IPFlag=           0 FMFlag=           0 FMFlg1=           0
         NFxFlg=           0 DoJE=F BraDBF=F KetDBF=F FulRan=T
         wScrn=  0.000000 ICntrl=       600 IOpCl=  0 I1Cent=           0 NGrid=           0
         NMat0=    1 NMatS0=   4278 NMatT0=    0 NMatD0=    1 NMtDS0=    0 NMtDT0=    0
 Petite list used in FoFCou.
 Closed shell SCF:
 Using DIIS extrapolation, IDIIS=  1040.
 NGot=   754974720 LenX=   752607631 LenY=   752596165
 Requested convergence on RMS density matrix=1.00D-08 within 200 cycles.
 Requested convergence on MAX density matrix=1.00D-06.
 Requested convergence on             energy=1.00D-06.
 No special actions if energy rises.

 Cycle   1  Pass 1  IDiag  1:
 E= -75.9506652271534    
 DIIS: error= 4.61D-02 at cycle   1 NSaved=   1.
 NSaved= 1 IEnMin= 1 EnMin= -75.9506652271534     IErMin= 1 ErrMin= 4.61D-02
 ErrMax= 4.61D-02  0.00D+00 EMaxC= 1.00D-01 BMatC= 2.16D-01 BMatP= 2.16D-01
 IDIUse=3 WtCom= 5.39D-01 WtEn= 4.61D-01
 Coeff-Com:  0.100D+01
 Coeff-En:   0.100D+01
 Coeff:      0.100D+01
 Gap=     0.452 Goal=   None    Shift=    0.000
 GapD=    0.452 DampG=2.000 DampE=0.500 DampFc=1.0000 IDamp=-1.
 RMSDP=2.26D-03 MaxDP=5.10D-02              OVMax= 1.25D-01

 Cycle   2  Pass 1  IDiag  1:
 E= -76.0085418960633     Delta-E=       -0.057876668910 Rises=F Damp=F
 DIIS: error= 3.00D-02 at cycle   2 NSaved=   2.
 NSaved= 2 IEnMin= 2 EnMin= -76.0085418960633     IErMin= 2 ErrMin= 3.00D-02
 ErrMax= 3.00D-02  0.00D+00 EMaxC= 1.00D-01 BMatC= 6.11D-02 BMatP= 2.16D-01
 IDIUse=3 WtCom= 7.00D-01 WtEn= 3.00D-01
 Coeff-Com:  0.320D+00 0.680D+00
 Coeff-En:   0.179D+00 0.821D+00
 Coeff:      0.278D+00 0.722D+00
 Gap=     0.573 Goal=   None    Shift=    0.000
 RMSDP=1.33D-03 MaxDP=3.62D-02 DE=-5.79D-02 OVMax= 6.41D-02

 Cycle   3  Pass 1  IDiag  1:
 E= -76.0441901625430     Delta-E=       -0.035648266480 Rises=F Damp=F
 DIIS: error= 5.74D-03 at cycle   3 NSaved=   3.
 NSaved= 3 IEnMin= 3 EnMin= -76.0441901625430     IErMin= 3 ErrMin= 5.74D-03
 ErrMax= 5.74D-03  0.00D+00 EMaxC= 1.00D-01 BMatC= 2.47D-03 BMatP= 6.11D-02
 IDIUse=3 WtCom= 9.43D-01 WtEn= 5.74D-02
 Coeff-Com: -0.296D-01 0.135D+00 0.895D+00
 Coeff-En:   0.000D+00 0.000D+00 0.100D+01
 Coeff:     -0.279D-01 0.127D+00 0.901D+00
 Gap=     0.546 Goal=   None    Shift=    0.000
 RMSDP=1.99D-04 MaxDP=3.89D-03 DE=-3.56D-02 OVMax= 1.14D-02

 Cycle   4  Pass 1  IDiag  1:
 E= -76.0456953372539     Delta-E=       -0.001505174711 Rises=F Damp=F
 DIIS: error= 4.08D-04 at cycle   4 NSaved=   4.
 NSaved= 4 IEnMin= 4 EnMin= -76.0456953372539     IErMin= 4 ErrMin= 4.08D-04
 ErrMax= 4.08D-04  0.00D+00 EMaxC= 1.00D-01 BMatC= 8.10D-06 BMatP= 2.47D-03
 IDIUse=3 WtCom= 9.96D-01 WtEn= 4.08D-03
 Coeff-Com:  0.682D-02-0.472D-01-0.257D+00 0.130D+01
 Coeff-En:   0.000D+00 0.000D+00 0.000D+00 0.100D+01
 Coeff:      0.679D-02-0.470D-01-0.256D+00 0.130D+01
 Gap=     0.547 Goal=   None    Shift=    0.000
 RMSDP=3.23D-05 MaxDP=5.95D-04 DE=-1.51D-03 OVMax= 1.87D-03

 Cycle   5  Pass 1  IDiag  1:
 E= -76.0457110267885     Delta-E=       -0.000015689535 Rises=F Damp=F
 DIIS: error= 1.25D-04 at cycle   5 NSaved=   5.
 NSaved= 5 IEnMin= 5 EnMin= -76.0457110267885     IErMin= 5 ErrMin= 1.25D-04
 ErrMax= 1.25D-04  0.00D+00 EMaxC= 1.00D-01 BMatC= 4.10D-07 BMatP= 8.10D-06
 IDIUse=3 WtCom= 9.99D-01 WtEn= 1.25D-03
 Coeff-Com: -0.388D-03 0.518D-02 0.295D-01-0.342D+00 0.131D+01
 Coeff-En:   0.000D+00 0.000D+00 0.000D+00 0.000D+00 0.100D+01
 Coeff:     -0.387D-03 0.518D-02 0.294D-01-0.342D+00 0.131D+01
 Gap=     0.548 Goal=   None    Shift=    0.000
 RMSDP=8.87D-06 MaxDP=1.78D-04 DE=-1.57D-05 OVMax= 5.55D-04

 Cycle   6  Pass 1  IDiag  1:
 E= -76.0457119783405     Delta-E=       -0.000000951552 Rises=F Damp=F
 DIIS: error= 1.71D-05 at cycle   6 NSaved=   6.
 NSaved= 6 IEnMin= 6 EnMin= -76.0457119783405     IErMin= 6 ErrMin= 1.71D-05
 ErrMax= 1.71D-05  0.00D+00 EMaxC= 1.00D-01 BMatC= 1.14D-08 BMatP= 4.10D-07
 IDIUse=1 WtCom= 1.00D+00 WtEn= 0.00D+00
 Coeff-Com: -0.983D-04-0.707D-04-0.182D-02 0.699D-01-0.417D+00 0.135D+01
 Coeff:     -0.983D-04-0.707D-04-0.182D-02 0.699D-01-0.417D+00 0.135D+01
 Gap=     0.548 Goal=   None    Shift=    0.000
 RMSDP=1.42D-06 MaxDP=3.54D-05 DE=-9.52D-07 OVMax= 9.49D-05

 Cycle   7  Pass 1  IDiag  1:
 E= -76.0457120053080     Delta-E=       -0.000000026967 Rises=F Damp=F
 DIIS: error= 3.22D-06 at cycle   7 NSaved=   7.
 NSaved= 7 IEnMin= 7 EnMin= -76.0457120053080     IErMin= 7 ErrMin= 3.22D-06
 ErrMax= 3.22D-06  0.00D+00 EMaxC= 1.00D-01 BMatC= 2.59D-10 BMatP= 1.14D-08
 IDIUse=1 WtCom= 1.00D+00 WtEn= 0.00D+00
 Coeff-Com:  0.225D-04-0.735D-04-0.164D-03-0.642D-02 0.485D-01-0.275D+00
 Coeff-Com:  0.123D+01
 Coeff:      0.225D-04-0.735D-04-0.164D-03-0.642D-02 0.485D-01-0.275D+00
 Coeff:      0.123D+01
 Gap=     0.548 Goal=   None    Shift=    0.000
 RMSDP=2.10D-07 MaxDP=5.38D-06 DE=-2.70D-08 OVMax= 1.70D-05

 Cycle   8  Pass 1  IDiag  1:
 E= -76.0457120059927     Delta-E=       -0.000000000685 Rises=F Damp=F
 DIIS: error= 5.00D-07 at cycle   8 NSaved=   8.
 NSaved= 8 IEnMin= 8 EnMin= -76.0457120059927     IErMin= 8 ErrMin= 5.00D-07
 ErrMax= 5.00D-07  0.00D+00 EMaxC= 1.00D-01 BMatC= 1.07D-11 BMatP= 2.59D-10
 IDIUse=1 WtCom= 1.00D+00 WtEn= 0.00D+00
 Coeff-Com:  0.162D-05 0.127D-04 0.123D-03-0.239D-02 0.148D-01-0.357D-01
 Coeff-Com: -0.148D+00 0.117D+01
 Coeff:      0.162D-05 0.127D-04 0.123D-03-0.239D-02 0.148D-01-0.357D-01
 Coeff:     -0.148D+00 0.117D+01
 Gap=     0.548 Goal=   None    Shift=    0.000
 RMSDP=5.82D-08 MaxDP=1.65D-06 DE=-6.85D-10 OVMax= 3.16D-06

 Cycle   9  Pass 1  IDiag  1:
 E= -76.0457120060175     Delta-E=       -0.000000000025 Rises=F Damp=F
 DIIS: error= 7.81D-08 at cycle   9 NSaved=   9.
 NSaved= 9 IEnMin= 9 EnMin= -76.0457120060175     IErMin= 9 ErrMin= 7.81D-08
 ErrMax= 7.81D-08  0.00D+00 EMaxC= 1.00D-01 BMatC= 2.15D-13 BMatP= 1.07D-11
 IDIUse=1 WtCom= 1.00D+00 WtEn= 0.00D+00
 Coeff-Com: -0.995D-06 0.997D-06-0.153D-04 0.581D-03-0.387D-02 0.146D-01
 Coeff-Com: -0.161D-01-0.154D+00 0.116D+01
 Coeff:     -0.995D-06 0.997D-06-0.153D-04 0.581D-03-0.387D-02 0.146D-01
 Coeff:     -0.161D-01-0.154D+00 0.116D+01
 Gap=     0.548 Goal=   None    Shift=    0.000
 RMSDP=8.23D-09 MaxDP=1.93D-07 DE=-2.48D-11 OVMax= 3.40D-07

 SCF Done:  E(RHF) =  -76.0457120060     A.U. after    9 cycles
            NFock=  9  Conv=0.82D-08     -V/T= 1.9980
 KE= 7.619941368964D+01 PE=-2.001406969643D+02 EE= 3.815610791540D+01
 Leave Link  502 at Wed Feb  8 13:47:22 2023, MaxMem=   754974720 cpu:               2.3 elap:               0.6
 (Enter /opt/cluster/programs/g16-c.01/g16/l801.exe)
 Windowed orbitals will be sorted by symmetry type.
 ExpMin= 2.53D-02 ExpMax= 1.53D+04 ExpMxC= 5.22D+02 IAcc=3 IRadAn=         5 AccDes= 0.00D+00
 HarFok:  IExCor=  205 AccDes= 0.00D+00 IRadAn=         5 IDoV=-2 UseB2=F ITyADJ=14
 ICtDFT= 12500011 ScaDFX=  1.000000  1.000000  1.000000  1.000000
 Largest valence mixing into a core orbital is  1.09D-04
 Largest core mixing into a valence orbital is  1.50D-05
 Range of M.O.s used for correlation:     2    92
 NBasis=    92 NAE=     5 NBE=     5 NFC=     1 NFV=     0
 NROrb=     91 NOA=     4 NOB=     4 NVA=    87 NVB=    87

 **** Warning!!: The largest alpha MO coefficient is  0.17021226D+02

 Leave Link  801 at Wed Feb  8 13:47:27 2023, MaxMem=   754974720 cpu:               0.3 elap:               0.1
 (Enter /opt/cluster/programs/g16-c.01/g16/l804.exe)
 Closed-shell transformation, MDV=   754974720 ITran=4 ISComp=2.
 Unit  1 TFree=        277513 TCopy=        242092.
 Semi-Direct transformation.
 ModeAB=           4 MOrb=             4 LenV=     754588990
 LASXX=       368428 LTotXX=      368428 LenRXX=      751146
 LTotAB=      382718 MaxLAS=     1379560 LenRXY=           0
 NonZer=     1119574 LenScr=     2357760 LnRSAI=     1379560
 LnScr1=     2758656 LExtra=           0 Total=      7247122
 MaxDsk=          -1 SrtSym=           T ITran=            4
 DoSDTr:  NPSUse=  4
 JobTyp=0 Pass  1:  I=   1 to   4.
 (rs|ai) integrals will be sorted in core.
 Complete sort for first half transformation.
 First half transformation complete.
 Complete sort for second half transformation.
 Second half transformation complete.
 Spin components of T(2) and E(2):
     alpha-alpha T2 =       0.7873810375D-02 E2=     -0.3247210444D-01
     alpha-beta  T2 =       0.4523458923D-01 E2=     -0.2016253102D+00
     beta-beta   T2 =       0.7873810375D-02 E2=     -0.3247210444D-01
 ANorm=    0.1030039907D+01
 E2 =    -0.2665695191D+00 EUMP2 =    -0.76312281525074D+02
 Leave Link  804 at Wed Feb  8 13:47:29 2023, MaxMem=   754974720 cpu:               1.7 elap:               0.5
 (Enter /opt/cluster/programs/g16-c.01/g16/l913.exe)
 CIDS:  MDV=   754974720.
 Frozen-core window:  NFC=   1 NFV=   0.
 IFCWin=0 IBDFC=1 NFBD=     0     0 NFCmp=     0     0 NFFFC=     0     0
 Using DD3R+UMP44R for 1st iteration.
 Using DD4RQ for 2nd and later iterations.
 Keep R2 and R3 ints in memory in symmetry-blocked form, NReq=11500115.
 FoFCou: FMM=F IPFlag=           0 FMFlag=           0 FMFlg1=           0
         NFxFlg=           0 DoJE=F BraDBF=F KetDBF=F FulRan=T
         wScrn=  0.000000 ICntrl=       600 IOpCl=  0 I1Cent=           0 NGrid=           0
         NMat0=    1 NMatS0=   4278 NMatT0=    0 NMatD0=    1 NMtDS0=    0 NMtDT0=    0
 Petite list used in FoFCou.
 CIDS: In Core Option IDoMem=           1.
 CCSD(T)
 =======
 Iterations=  50 Convergence= 0.100D-06
 Produce multiple copies of IABC intergrals
 Iteration Nr.   1
 **********************
 DD1Dir will call FoFMem   1 times, MxPair=        20
 NAB=    10 NAA=     0 NBB=     0.
 MP4(R+Q)=  0.39641031D-02
 Maximum subspace dimension=  5
 A-vector RMS=  2.6924731D-03 Max=  1.0915842D-02 conv= 1.00D-05.
 RLE energy=       -0.2657254423
 E3=       -0.31579836D-02        EUMP3=      -0.76315439509D+02
 E4(DQ)=   -0.34455087D-03        UMP4(DQ)=   -0.76315784060D+02
 E4(SDQ)=  -0.20753512D-02        UMP4(SDQ)=  -0.76317514860D+02
 VARIATIONAL ENERGIES WITH THE FIRST-ORDER WAVEFUNCTION:
 DE(Corr)= -0.26572277     E(Corr)=     -76.311434773    
 NORM(A)=   0.10298950D+01
 Iteration Nr.   2
 **********************
 DD1Dir will call FoFMem   1 times, MxPair=        20
 NAB=    10 NAA=     0 NBB=     0.
 A-vector RMS=  2.7327183D-04 Max=  1.9624650D-03 conv= 1.00D-05.
 RLE energy=       -0.2710520192
 DE(Corr)= -0.27071128     E(CORR)=     -76.316423285     Delta=-4.99D-03
 NORM(A)=   0.10317548D+01
 Iteration Nr.   3
 **********************
 DD1Dir will call FoFMem   1 times, MxPair=        20
 NAB=    10 NAA=     0 NBB=     0.
 A-vector RMS=  3.5923897D-04 Max=  1.9389983D-03 conv= 1.00D-05.
 RLE energy=       -0.2713167423
 DE(Corr)= -0.27099373     E(CORR)=     -76.316705737     Delta=-2.82D-04
 NORM(A)=   0.10320965D+01
 Iteration Nr.   4
 **********************
 DD1Dir will call FoFMem   1 times, MxPair=        20
 NAB=    10 NAA=     0 NBB=     0.
 A-vector RMS=  5.2882393D-05 Max=  3.1607069D-04 conv= 1.00D-05.
 RLE energy=       -0.2713444027
 DE(Corr)= -0.27132115     E(CORR)=     -76.317033154     Delta=-3.27D-04
 NORM(A)=   0.10321903D+01
 Iteration Nr.   5
 **********************
 DD1Dir will call FoFMem   1 times, MxPair=        20
 NAB=    10 NAA=     0 NBB=     0.
 A-vector RMS=  2.5793282D-05 Max=  1.6571754D-04 conv= 1.00D-05.
 RLE energy=       -0.2713540527
 DE(Corr)= -0.27134987     E(CORR)=     -76.317061877     Delta=-2.87D-05
 NORM(A)=   0.10322083D+01
 Iteration Nr.   6
 **********************
 DD1Dir will call FoFMem   1 times, MxPair=        20
 NAB=    10 NAA=     0 NBB=     0.
 A-vector RMS=  6.1074902D-06 Max=  3.7746038D-05 conv= 1.00D-05.
 RLE energy=       -0.2713511747
 DE(Corr)= -0.27135188     E(CORR)=     -76.317063881     Delta=-2.00D-06
 NORM(A)=   0.10322099D+01
 Iteration Nr.   7
 **********************
 DD1Dir will call FoFMem   1 times, MxPair=        20
 NAB=    10 NAA=     0 NBB=     0.
 A-vector RMS=  1.8873639D-06 Max=  1.0617763D-05 conv= 1.00D-05.
 RLE energy=       -0.2713511274
 DE(Corr)= -0.27135185     E(CORR)=     -76.317063856     Delta= 2.53D-08
 NORM(A)=   0.10322104D+01
 Iteration Nr.   8
 **********************
 DD1Dir will call FoFMem   1 times, MxPair=        20
 NAB=    10 NAA=     0 NBB=     0.
 A-vector RMS=  7.4058836D-07 Max=  4.9795016D-06 conv= 1.00D-05.
 RLE energy=       -0.2713515900
 DE(Corr)= -0.27135166     E(CORR)=     -76.317063671     Delta= 1.86D-07
 NORM(A)=   0.10322107D+01
 Iteration Nr.   9
 **********************
 DD1Dir will call FoFMem   1 times, MxPair=        20
 NAB=    10 NAA=     0 NBB=     0.
 A-vector RMS=  1.4060052D-07 Max=  8.1880759D-07 conv= 1.00D-05.
 RLE energy=       -0.2713516617
 DE(Corr)= -0.27135167     E(CORR)=     -76.317063678     Delta=-7.44D-09
 NORM(A)=   0.10322108D+01
 CI/CC converged in    9 iterations to DelEn=-7.44D-09 Conv= 1.00D-07 ErrA1= 1.41D-07 Conv= 1.00D-05
 Wavefunction amplitudes converged. E(Corr)=     -76.317063678    
 Largest amplitude= 2.06D-02
 IPart=  4 IA=    6   11.23% done.
 IPart=  1 IA=   11   21.79% done.
 IPart=  3 IA=   16   31.68% done.
 IPart=  4 IA=   21   40.90% done.
 IPart=  3 IA=   27   51.08% done.
 IPart=  2 IA=   33   60.30% done.
 IPart=  4 IA=   41   71.10% done.
 IPart=  4 IA=   49   80.19% done.
 IPart=  4 IA=   61   90.62% done.
 Time for triples=        5.65 seconds.
 T4(CCSD)= -0.86251447D-02
 T5(CCSD)=  0.29229438D-03
 CCSD(T)= -0.76325396528D+02
 Discarding MO integrals.
 Leave Link  913 at Wed Feb  8 13:47:33 2023, MaxMem=   754974720 cpu:               9.5 elap:               2.4
 (Enter /opt/cluster/programs/g16-c.01/g16/l601.exe)
 Copying SCF densities to generalized density rwf, IOpCl= 0 IROHF=0.

 **********************************************************************

            Population analysis using the SCF Density.

 **********************************************************************

 Orbital symmetries:
       Occupied  (A1) (A1) (B2) (A1) (B1)
       Virtual   (A1) (B2) (A1) (B1) (A1) (B2) (B2) (A1) (A2) (B1)
                 (A1) (B2) (A1) (B2) (B2) (A1) (A1) (B1) (A2) (A1)
                 (B1) (A1) (B1) (B2) (A2) (A1) (B2) (A1) (B2) (B1)
                 (B2) (A2) (A1) (B2) (A1) (A2) (B1) (A1) (B2) (B2)
                 (A1) (B1) (A2) (A1) (A1) (B1) (B2) (A1) (B2) (B1)
                 (B2) (A1) (A2) (A1) (B2) (B1) (A1) (B1) (A2) (B1)
                 (A2) (A1) (B2) (B2) (A1) (B2) (B2) (A2) (A1) (B2)
                 (B1) (A1) (A1) (B2) (B1) (B2) (B1) (A2) (A1) (B1)
                 (A2) (A1) (A1) (A1) (B2) (B2) (A1)
 The electronic state is 1-A1.
 Alpha  occ. eigenvalues --  -20.56462  -1.39705  -0.70211  -0.63148  -0.51927
 Alpha virt. eigenvalues --    0.02861   0.04895   0.13282   0.15913   0.17862
 Alpha virt. eigenvalues --    0.18704   0.22698   0.25021   0.27199   0.28631
 Alpha virt. eigenvalues --    0.30284   0.37374   0.44136   0.47650   0.59168
 Alpha virt. eigenvalues --    0.67410   0.70466   0.72137   0.73776   0.85910
 Alpha virt. eigenvalues --    0.87023   0.89561   0.90032   0.92214   0.92782
 Alpha virt. eigenvalues --    0.94034   0.96256   1.04143   1.05862   1.07981
 Alpha virt. eigenvalues --    1.12059   1.19725   1.21746   1.24989   1.44202
 Alpha virt. eigenvalues --    1.55319   1.56730   1.79674   1.98276   2.02609
 Alpha virt. eigenvalues --    2.20567   2.28035   2.33191   2.33418   2.39745
 Alpha virt. eigenvalues --    2.41805   2.45838   2.54957   2.63279   2.69529
 Alpha virt. eigenvalues --    2.69576   2.89532   2.90051   3.54446   3.76801
 Alpha virt. eigenvalues --    3.98471   4.06602   4.14189   4.22159   4.44283
 Alpha virt. eigenvalues --    4.44848   4.46627   4.47278   4.66159   4.83914
 Alpha virt. eigenvalues --    5.06341   5.11757   5.27296   5.28377   5.65748
 Alpha virt. eigenvalues --    5.69222   5.71591   6.33643   6.50952   6.70473
 Alpha virt. eigenvalues --    7.17879   7.19910   7.28852   7.30920   7.35179
 Alpha virt. eigenvalues --    7.48112   7.55242   7.56438   7.77566   8.25604
 Alpha virt. eigenvalues --    9.13705  17.51878
          Condensed to atoms (all electrons):
               1          2          3
     1  O    7.838016   0.267974   0.267974
     2  H    0.267974   0.528032   0.017012
     3  H    0.267974   0.017012   0.528032
 Mulliken charges:
               1
     1  O   -0.373964
     2  H    0.186982
     3  H    0.186982
 Sum of Mulliken charges =   0.00000
 Mulliken charges with hydrogens summed into heavy atoms:
               1
     1  O    0.000000
 Electronic spatial extent (au):  <R**2>=             18.8050
 Charge=              0.0000 electrons
 Dipole moment (field-independent basis, Debye):
    X=             -0.0000    Y=             -0.0000    Z=             -2.2067  Tot=              2.2067
 Quadrupole moment (field-independent basis, Debye-Ang):
   XX=             -7.4256   YY=             -5.0821   ZZ=             -5.6910
   XY=              0.0000   XZ=              0.0000   YZ=             -0.0000
 Traceless Quadrupole moment (field-independent basis, Debye-Ang):
   XX=             -1.3594   YY=              0.9842   ZZ=              0.3752
   XY=              0.0000   XZ=              0.0000   YZ=             -0.0000
 Octapole moment (field-independent basis, Debye-Ang**2):
  XXX=              0.0000  YYY=              0.0000  ZZZ=             -1.5240  XYY=             -0.0000
  XXY=             -0.0000  XXZ=             -0.3138  XZZ=              0.0000  YZZ=              0.0000
  YYZ=             -1.1400  XYZ=             -0.0000
 Hexadecapole moment (field-independent basis, Debye-Ang**3):
 XXXX=             -6.4975 YYYY=             -6.0518 ZZZZ=             -6.8348 XXXY=             -0.0000
 XXXZ=             -0.0000 YYYX=             -0.0000 YYYZ=             -0.0000 ZZZX=             -0.0000
 ZZZY=              0.0000 XXYY=             -2.2364 XXZZ=             -2.3064 YYZZ=             -1.7463
 XXYZ=             -0.0000 YYXZ=              0.0000 ZZXY=              0.0000
 N-N= 9.739463353220D+00 E-N=-2.001406962717D+02  KE= 7.619941368964D+01
 Symmetry A1   KE= 6.793321066179D+01
 Symmetry A2   KE= 1.562006967524D-19
 Symmetry B1   KE= 4.474603866980D+00
 Symmetry B2   KE= 3.791599160874D+00
 Leave Link  601 at Wed Feb  8 13:47:36 2023, MaxMem=   754974720 cpu:               0.5 elap:               0.2
 (Enter /opt/cluster/programs/g16-c.01/g16/l9999.exe)
 Unable to Open any file for archive entry.
 1\1\GINC-NODE58\SP\RCCSD(T)-FC\Aug-CC-pVTZ\H2O1\BOITTIER\08-Feb-2023\0
 \\#P CCSD(T)/aug-cc-pVTZ scf(maxcycle=200)\\Gaussian input\\0,1\O,0,0.
 ,0.11751,0.\H,0,0.7183372325,-0.4395112028,0.\H,0,-0.5114732386,-0.633
 9393504,0.\\Version=ES64L-G16RevC.01\State=1-A1\HF=-76.045712\MP2=-76.
 3122815\MP3=-76.3154395\MP4D=-76.3197482\MP4DQ=-76.3157841\MP4SDQ=-76.
 3175149\CCSD=-76.3170637\CCSD(T)=-76.3253965\RMSD=8.235e-09\PG=C02V [C
 2(O1),SGV(H2)]\\@
 The archive entry for this job was punched.


 There was a great rattling of the words for the fewness of ideas.
                   -- Charles Baxter in Gryphon
 Job cpu time:       0 days  0 hours  0 minutes 24.1 seconds.
 Elapsed time:       0 days  0 hours  0 minutes  8.3 seconds.
 File lengths (MBytes):  RWF=     64 Int=      0 D2E=      0 Chk=      2 Scr=      1
 Normal termination of Gaussian 16 at Wed Feb  8 13:47:38 2023.
