 Entering Gaussian System, Link 0=/opt/cluster/programs/g16-c.01/g16/g16
 Input=/scratch/boittier/jobs/tmp.7261767/gaussian_96_water_ccsdt_atz.com
 Output=/scratch/boittier/jobs/tmp.7261767/gaussian_96_water_ccsdt_atz.out
 Initial command:
 /opt/cluster/programs/g16-c.01/g16/l1.exe "/scratch/boittier/jobs/tmp.7261767/Gau-136908.inp" -scrdir="/scratch/boittier/jobs/tmp.7261767/"
 Entering Link 1 = /opt/cluster/programs/g16-c.01/g16/l1.exe PID=    136909.
  
 Copyright (c) 1988-2019, Gaussian, Inc.  All Rights Reserved.
  
 This is part of the Gaussian(R) 16 program.  It is based on
 the Gaussian(R) 09 system (copyright 2009, Gaussian, Inc.),
 the Gaussian(R) 03 system (copyright 2003, Gaussian, Inc.),
 the Gaussian(R) 98 system (copyright 1998, Gaussian, Inc.),
 the Gaussian(R) 94 system (copyright 1995, Gaussian, Inc.),
 the Gaussian 92(TM) system (copyright 1992, Gaussian, Inc.),
 the Gaussian 90(TM) system (copyright 1990, Gaussian, Inc.),
 the Gaussian 88(TM) system (copyright 1988, Gaussian, Inc.),
 the Gaussian 86(TM) system (copyright 1986, Carnegie Mellon
 University), and the Gaussian 82(TM) system (copyright 1983,
 Carnegie Mellon University). Gaussian is a federally registered
 trademark of Gaussian, Inc.
  
 This software contains proprietary and confidential information,
 including trade secrets, belonging to Gaussian, Inc.
  
 This software is provided under written license and may be
 used, copied, transmitted, or stored only in accord with that
 written license.
  
 The following legend is applicable only to US Government
 contracts under FAR:
  
                    RESTRICTED RIGHTS LEGEND
  
 Use, reproduction and disclosure by the US Government is
 subject to restrictions as set forth in subparagraphs (a)
 and (c) of the Commercial Computer Software - Restricted
 Rights clause in FAR 52.227-19.
  
 Gaussian, Inc.
 340 Quinnipiac St., Bldg. 40, Wallingford CT 06492
  
  
 ---------------------------------------------------------------
 Warning -- This program may not be used in any manner that
 competes with the business of Gaussian, Inc. or will provide
 assistance to any competitor of Gaussian, Inc.  The licensee
 of this program is prohibited from giving any competitor of
 Gaussian, Inc. access to this program.  By using this program,
 the user acknowledges that Gaussian, Inc. is engaged in the
 business of creating and licensing software in the field of
 computational chemistry and represents and warrants to the
 licensee that it is not a competitor of Gaussian, Inc. and that
 it will not use this program in any manner prohibited above.
 ---------------------------------------------------------------
  

 Cite this work as:
 Gaussian 16, Revision C.01,
 M. J. Frisch, G. W. Trucks, H. B. Schlegel, G. E. Scuseria, 
 M. A. Robb, J. R. Cheeseman, G. Scalmani, V. Barone, 
 G. A. Petersson, H. Nakatsuji, X. Li, M. Caricato, A. V. Marenich, 
 J. Bloino, B. G. Janesko, R. Gomperts, B. Mennucci, H. P. Hratchian, 
 J. V. Ortiz, A. F. Izmaylov, J. L. Sonnenberg, D. Williams-Young, 
 F. Ding, F. Lipparini, F. Egidi, J. Goings, B. Peng, A. Petrone, 
 T. Henderson, D. Ranasinghe, V. G. Zakrzewski, J. Gao, N. Rega, 
 G. Zheng, W. Liang, M. Hada, M. Ehara, K. Toyota, R. Fukuda, 
 J. Hasegawa, M. Ishida, T. Nakajima, Y. Honda, O. Kitao, H. Nakai, 
 T. Vreven, K. Throssell, J. A. Montgomery, Jr., J. E. Peralta, 
 F. Ogliaro, M. J. Bearpark, J. J. Heyd, E. N. Brothers, K. N. Kudin, 
 V. N. Staroverov, T. A. Keith, R. Kobayashi, J. Normand, 
 K. Raghavachari, A. P. Rendell, J. C. Burant, S. S. Iyengar, 
 J. Tomasi, M. Cossi, J. M. Millam, M. Klene, C. Adamo, R. Cammi, 
 J. W. Ochterski, R. L. Martin, K. Morokuma, O. Farkas, 
 J. B. Foresman, and D. J. Fox, Gaussian, Inc., Wallingford CT, 2019.
 
 ******************************************
 Gaussian 16:  ES64L-G16RevC.01  3-Jul-2019
                 8-Feb-2023 
 ******************************************
 %nproc=4
 Will use up to    4 processors via shared memory.
 %mem=5760MB
 %chk=gaussian_96_water_ccsdt_atz.chk
 ----------------------------------------
 #P CCSD(T)/aug-cc-pVTZ scf(maxcycle=200)
 ----------------------------------------
 1/38=1,172=1/1;
 2/12=2,17=6,18=5,40=1/2;
 3/5=16,6=1,7=10,11=9,25=1,30=1/1,2,3;
 4//1;
 5/5=2,7=200,38=5/2;
 8/6=4,9=120000,10=1/1,4;
 9/5=7,14=2/13;
 6/7=2,8=2,9=2,10=2/1;
 99/5=1,9=1/99;
 Leave Link    1 at Wed Feb  8 13:53:04 2023, MaxMem=   754974720 cpu:               0.1 elap:               0.0
 (Enter /opt/cluster/programs/g16-c.01/g16/l101.exe)
 --------------
 Gaussian input
 --------------
 Symbolic Z-matrix:
 Charge =  0 Multiplicity = 1
 O                     0.        0.11751   0. 
 H                     0.75785  -0.47015   0. 
 H                    -0.86371  -0.29926   0. 
 
 ITRead=  0  0  0
 MicOpt= -1 -1 -1
 NAtoms=      3 NQM=        3 NQMF=       0 NMMI=      0 NMMIF=      0
                NMic=       0 NMicF=      0.
                    Isotopes and Nuclear Properties:
 (Nuclear quadrupole moments (NQMom) in fm**2, nuclear magnetic moments (NMagM)
  in nuclear magnetons)

  Atom         1           2           3
 IAtWgt=          16           1           1
 AtmWgt=  15.9949146   1.0078250   1.0078250
 NucSpn=           0           1           1
 AtZEff=  -0.0000000  -0.0000000  -0.0000000
 NQMom=    0.0000000   0.0000000   0.0000000
 NMagM=    0.0000000   2.7928460   2.7928460
 AtZNuc=   8.0000000   1.0000000   1.0000000
 Leave Link  101 at Wed Feb  8 13:53:04 2023, MaxMem=   754974720 cpu:               0.3 elap:               0.2
 (Enter /opt/cluster/programs/g16-c.01/g16/l202.exe)
                          Input orientation:                          
 ---------------------------------------------------------------------
 Center     Atomic      Atomic             Coordinates (Angstroms)
 Number     Number       Type             X           Y           Z
 ---------------------------------------------------------------------
      1          8           0        0.000000    0.117510    0.000000
      2          1           0        0.757850   -0.470150    0.000000
      3          1           0       -0.863705   -0.299257    0.000000
 ---------------------------------------------------------------------
                    Distance matrix (angstroms):
                    1          2          3
     1  O    0.000000
     2  H    0.959000   0.000000
     3  H    0.959000   1.630535   0.000000
 Stoichiometry    H2O
 Framework group  C2V[C2(O),SGV(H2)]
 Deg. of freedom     2
 Full point group                 C2V     NOp   4
 Largest Abelian subgroup         C2V     NOp   4
 Largest concise Abelian subgroup C2      NOp   2
                         Standard orientation:                         
 ---------------------------------------------------------------------
 Center     Atomic      Atomic             Coordinates (Angstroms)
 Number     Number       Type             X           Y           Z
 ---------------------------------------------------------------------
      1          8           0        0.000000    0.000000    0.100999
      2          1           0       -0.000000    0.815268   -0.403996
      3          1           0       -0.000000   -0.815268   -0.403996
 ---------------------------------------------------------------------
 Rotational constants (GHZ):        1107.0657912         377.2261440         281.3558099
 Leave Link  202 at Wed Feb  8 13:53:04 2023, MaxMem=   754974720 cpu:               0.2 elap:               0.1
 (Enter /opt/cluster/programs/g16-c.01/g16/l301.exe)
 Standard basis: Aug-CC-pVTZ (5D, 7F)
 Ernie: Thresh=  0.10000D-02 Tol=  0.10000D-05 Strict=F.
 Ernie:  3 primitive shells out of 52 were deleted.
 There are    42 symmetry adapted cartesian basis functions of A1  symmetry.
 There are    12 symmetry adapted cartesian basis functions of A2  symmetry.
 There are    20 symmetry adapted cartesian basis functions of B1  symmetry.
 There are    31 symmetry adapted cartesian basis functions of B2  symmetry.
 There are    35 symmetry adapted basis functions of A1  symmetry.
 There are    12 symmetry adapted basis functions of A2  symmetry.
 There are    18 symmetry adapted basis functions of B1  symmetry.
 There are    27 symmetry adapted basis functions of B2  symmetry.
    92 basis functions,   126 primitive gaussians,   105 cartesian basis functions
     5 alpha electrons        5 beta electrons
       nuclear repulsion energy         9.1533589341 Hartrees.
 IExCor=    0 DFT=F Ex=HF Corr=None ExCW=0 ScaHFX=  1.000000
 ScaDFX=  1.000000  1.000000  1.000000  1.000000 ScalE2=  1.000000  1.000000
 IRadAn=      5 IRanWt=     -1 IRanGd=            0 ICorTp=0 IEmpDi=  4
 NAtoms=    3 NActive=    3 NUniq=    2 SFac= 2.25D+00 NAtFMM=   60 NAOKFM=F Big=F
 Integral buffers will be    131072 words long.
 Raffenetti 1 integral format.
 Two-electron integral symmetry is turned on.
 Leave Link  301 at Wed Feb  8 13:53:04 2023, MaxMem=   754974720 cpu:               0.1 elap:               0.0
 (Enter /opt/cluster/programs/g16-c.01/g16/l302.exe)
 NPDir=0 NMtPBC=     1 NCelOv=     1 NCel=       1 NClECP=     1 NCelD=      1
         NCelK=      1 NCelE2=     1 NClLst=     1 CellRange=     0.0.
 One-electron integrals computed using PRISM.
 One-electron integral symmetry used in STVInt
 NBasis=    92 RedAO= T EigKep=  3.59D-04  NBF=    35    12    18    27
 NBsUse=    92 1.00D-06 EigRej= -1.00D+00 NBFU=    35    12    18    27
 Leave Link  302 at Wed Feb  8 13:53:05 2023, MaxMem=   754974720 cpu:               3.8 elap:               1.3
 (Enter /opt/cluster/programs/g16-c.01/g16/l303.exe)
 DipDrv:  MaxL=1.
 Leave Link  303 at Wed Feb  8 13:53:06 2023, MaxMem=   754974720 cpu:               0.5 elap:               0.2
 (Enter /opt/cluster/programs/g16-c.01/g16/l401.exe)
 ExpMin= 2.53D-02 ExpMax= 1.53D+04 ExpMxC= 5.22D+02 IAcc=3 IRadAn=         5 AccDes= 0.00D+00
 Harris functional with IExCor=  205 and IRadAn=       5 diagonalized for initial guess.
 HarFok:  IExCor=  205 AccDes= 0.00D+00 IRadAn=         5 IDoV= 1 UseB2=F ITyADJ=14
 ICtDFT=  3500011 ScaDFX=  1.000000  1.000000  1.000000  1.000000
 FoFCou: FMM=F IPFlag=           0 FMFlag=      100000 FMFlg1=           0
         NFxFlg=           0 DoJE=T BraDBF=F KetDBF=T FulRan=T
         wScrn=  0.000000 ICntrl=       500 IOpCl=  0 I1Cent=   200000004 NGrid=           0
         NMat0=    1 NMatS0=      1 NMatT0=    0 NMatD0=    1 NMtDS0=    0 NMtDT0=    0
 Petite list used in FoFCou.
 Harris En= -76.1526307691259    
 JPrj=0 DoOrth=F DoCkMO=F.
 Initial guess orbital symmetries:
       Occupied  (A1) (A1) (B2) (A1) (B1)
       Virtual   (A1) (B2) (A1) (B1) (A1) (B2) (B2) (A1) (A2) (A1)
                 (B1) (B2) (A1) (B2) (B2) (A1) (A1) (B1) (A2) (A1)
                 (A1) (B1) (B1) (B2) (A2) (B2) (A1) (B2) (A1) (B1)
                 (B2) (A1) (A2) (B2) (A2) (A1) (B1) (B2) (A1) (B2)
                 (A1) (B1) (A2) (A1) (A1) (B1) (B2) (A1) (B1) (B2)
                 (A1) (A2) (B2) (B2) (A1) (B1) (A2) (B2) (A1) (B1)
                 (B1) (A2) (B2) (A1) (A1) (B2) (B2) (A2) (A1) (B2)
                 (B1) (A1) (A1) (B2) (B1) (A1) (B1) (A1) (A2) (B1)
                 (A2) (B2) (A1) (B2) (A1) (B2) (A1)
 The electronic state of the initial guess is 1-A1.
 Leave Link  401 at Wed Feb  8 13:53:06 2023, MaxMem=   754974720 cpu:               0.7 elap:               0.2
 (Enter /opt/cluster/programs/g16-c.01/g16/l502.exe)
 Keep R1 ints in memory in symmetry-blocked form, NReq=11496777.
 FoFCou: FMM=F IPFlag=           0 FMFlag=           0 FMFlg1=           0
         NFxFlg=           0 DoJE=F BraDBF=F KetDBF=F FulRan=T
         wScrn=  0.000000 ICntrl=       600 IOpCl=  0 I1Cent=           0 NGrid=           0
         NMat0=    1 NMatS0=   4278 NMatT0=    0 NMatD0=    1 NMtDS0=    0 NMtDT0=    0
 Petite list used in FoFCou.
 Closed shell SCF:
 Using DIIS extrapolation, IDIIS=  1040.
 NGot=   754974720 LenX=   752607631 LenY=   752596165
 Requested convergence on RMS density matrix=1.00D-08 within 200 cycles.
 Requested convergence on MAX density matrix=1.00D-06.
 Requested convergence on             energy=1.00D-06.
 No special actions if energy rises.

 Cycle   1  Pass 1  IDiag  1:
 E= -75.9667748953445    
 DIIS: error= 6.40D-02 at cycle   1 NSaved=   1.
 NSaved= 1 IEnMin= 1 EnMin= -75.9667748953445     IErMin= 1 ErrMin= 6.40D-02
 ErrMax= 6.40D-02  0.00D+00 EMaxC= 1.00D-01 BMatC= 2.07D-01 BMatP= 2.07D-01
 IDIUse=3 WtCom= 3.60D-01 WtEn= 6.40D-01
 Coeff-Com:  0.100D+01
 Coeff-En:   0.100D+01
 Coeff:      0.100D+01
 Gap=     0.450 Goal=   None    Shift=    0.000
 GapD=    0.450 DampG=2.000 DampE=0.500 DampFc=1.0000 IDamp=-1.
 RMSDP=2.18D-03 MaxDP=4.95D-02              OVMax= 1.24D-01

 Cycle   2  Pass 1  IDiag  1:
 E= -76.0202338373644     Delta-E=       -0.053458942020 Rises=F Damp=F
 DIIS: error= 4.17D-02 at cycle   2 NSaved=   2.
 NSaved= 2 IEnMin= 2 EnMin= -76.0202338373644     IErMin= 2 ErrMin= 4.17D-02
 ErrMax= 4.17D-02  0.00D+00 EMaxC= 1.00D-01 BMatC= 6.06D-02 BMatP= 2.07D-01
 IDIUse=3 WtCom= 5.83D-01 WtEn= 4.17D-01
 Coeff-Com:  0.324D+00 0.676D+00
 Coeff-En:   0.200D+00 0.800D+00
 Coeff:      0.272D+00 0.728D+00
 Gap=     0.565 Goal=   None    Shift=    0.000
 RMSDP=1.30D-03 MaxDP=3.19D-02 DE=-5.35D-02 OVMax= 6.60D-02

 Cycle   3  Pass 1  IDiag  1:
 E= -76.0557641823439     Delta-E=       -0.035530344980 Rises=F Damp=F
 DIIS: error= 9.07D-03 at cycle   3 NSaved=   3.
 NSaved= 3 IEnMin= 3 EnMin= -76.0557641823439     IErMin= 3 ErrMin= 9.07D-03
 ErrMax= 9.07D-03  0.00D+00 EMaxC= 1.00D-01 BMatC= 3.05D-03 BMatP= 6.06D-02
 IDIUse=3 WtCom= 9.09D-01 WtEn= 9.07D-02
 Coeff-Com: -0.305D-01 0.152D+00 0.878D+00
 Coeff-En:   0.000D+00 0.000D+00 0.100D+01
 Coeff:     -0.277D-01 0.139D+00 0.889D+00
 Gap=     0.534 Goal=   None    Shift=    0.000
 RMSDP=2.25D-04 MaxDP=4.36D-03 DE=-3.55D-02 OVMax= 1.26D-02

 Cycle   4  Pass 1  IDiag  1:
 E= -76.0576457260986     Delta-E=       -0.001881543755 Rises=F Damp=F
 DIIS: error= 7.01D-04 at cycle   4 NSaved=   4.
 NSaved= 4 IEnMin= 4 EnMin= -76.0576457260986     IErMin= 4 ErrMin= 7.01D-04
 ErrMax= 7.01D-04  0.00D+00 EMaxC= 1.00D-01 BMatC= 1.53D-05 BMatP= 3.05D-03
 IDIUse=3 WtCom= 9.93D-01 WtEn= 7.01D-03
 Coeff-Com:  0.617D-02-0.535D-01-0.220D+00 0.127D+01
 Coeff-En:   0.000D+00 0.000D+00 0.000D+00 0.100D+01
 Coeff:      0.613D-02-0.532D-01-0.218D+00 0.127D+01
 Gap=     0.536 Goal=   None    Shift=    0.000
 RMSDP=3.73D-05 MaxDP=7.31D-04 DE=-1.88D-03 OVMax= 2.38D-03

 Cycle   5  Pass 1  IDiag  1:
 E= -76.0576698962803     Delta-E=       -0.000024170182 Rises=F Damp=F
 DIIS: error= 1.88D-04 at cycle   5 NSaved=   5.
 NSaved= 5 IEnMin= 5 EnMin= -76.0576698962803     IErMin= 5 ErrMin= 1.88D-04
 ErrMax= 1.88D-04  0.00D+00 EMaxC= 1.00D-01 BMatC= 7.13D-07 BMatP= 1.53D-05
 IDIUse=3 WtCom= 9.98D-01 WtEn= 1.88D-03
 Coeff-Com:  0.483D-03 0.126D-02-0.775D-03-0.280D+00 0.128D+01
 Coeff-En:   0.000D+00 0.000D+00 0.000D+00 0.000D+00 0.100D+01
 Coeff:      0.482D-03 0.126D-02-0.774D-03-0.279D+00 0.128D+01
 Gap=     0.536 Goal=   None    Shift=    0.000
 RMSDP=1.22D-05 MaxDP=2.35D-04 DE=-2.42D-05 OVMax= 8.40D-04

 Cycle   6  Pass 1  IDiag  1:
 E= -76.0576717524231     Delta-E=       -0.000001856143 Rises=F Damp=F
 DIIS: error= 2.98D-05 at cycle   6 NSaved=   6.
 NSaved= 6 IEnMin= 6 EnMin= -76.0576717524231     IErMin= 6 ErrMin= 2.98D-05
 ErrMax= 2.98D-05  0.00D+00 EMaxC= 1.00D-01 BMatC= 2.09D-08 BMatP= 7.13D-07
 IDIUse=1 WtCom= 1.00D+00 WtEn= 0.00D+00
 Coeff-Com: -0.291D-03 0.146D-02 0.663D-02 0.163D-01-0.310D+00 0.129D+01
 Coeff:     -0.291D-03 0.146D-02 0.663D-02 0.163D-01-0.310D+00 0.129D+01
 Gap=     0.537 Goal=   None    Shift=    0.000
 RMSDP=2.52D-06 MaxDP=5.99D-05 DE=-1.86D-06 OVMax= 1.83D-04

 Cycle   7  Pass 1  IDiag  1:
 E= -76.0576718197771     Delta-E=       -0.000000067354 Rises=F Damp=F
 DIIS: error= 5.38D-06 at cycle   7 NSaved=   7.
 NSaved= 7 IEnMin= 7 EnMin= -76.0576718197771     IErMin= 7 ErrMin= 5.38D-06
 ErrMax= 5.38D-06  0.00D+00 EMaxC= 1.00D-01 BMatC= 1.08D-09 BMatP= 2.09D-08
 IDIUse=1 WtCom= 1.00D+00 WtEn= 0.00D+00
 Coeff-Com:  0.305D-04-0.372D-03-0.147D-02 0.148D-01-0.129D-01-0.217D+00
 Coeff-Com:  0.122D+01
 Coeff:      0.305D-04-0.372D-03-0.147D-02 0.148D-01-0.129D-01-0.217D+00
 Coeff:      0.122D+01
 Gap=     0.537 Goal=   None    Shift=    0.000
 RMSDP=3.66D-07 MaxDP=9.48D-06 DE=-6.74D-08 OVMax= 3.41D-05

 Cycle   8  Pass 1  IDiag  1:
 E= -76.0576718223808     Delta-E=       -0.000000002604 Rises=F Damp=F
 DIIS: error= 1.41D-06 at cycle   8 NSaved=   8.
 NSaved= 8 IEnMin= 8 EnMin= -76.0576718223808     IErMin= 8 ErrMin= 1.41D-06
 ErrMax= 1.41D-06  0.00D+00 EMaxC= 1.00D-01 BMatC= 6.33D-11 BMatP= 1.08D-09
 IDIUse=1 WtCom= 1.00D+00 WtEn= 0.00D+00
 Coeff-Com:  0.824D-05 0.200D-04 0.819D-04-0.547D-02 0.210D-01-0.692D-02
 Coeff-Com: -0.380D+00 0.137D+01
 Coeff:      0.824D-05 0.200D-04 0.819D-04-0.547D-02 0.210D-01-0.692D-02
 Coeff:     -0.380D+00 0.137D+01
 Gap=     0.537 Goal=   None    Shift=    0.000
 RMSDP=1.17D-07 MaxDP=2.78D-06 DE=-2.60D-09 OVMax= 8.33D-06

 Cycle   9  Pass 1  IDiag  1:
 E= -76.0576718225408     Delta-E=       -0.000000000160 Rises=F Damp=F
 DIIS: error= 1.46D-07 at cycle   9 NSaved=   9.
 NSaved= 9 IEnMin= 9 EnMin= -76.0576718225408     IErMin= 9 ErrMin= 1.46D-07
 ErrMax= 1.46D-07  0.00D+00 EMaxC= 1.00D-01 BMatC= 5.85D-13 BMatP= 6.33D-11
 IDIUse=1 WtCom= 1.00D+00 WtEn= 0.00D+00
 Coeff-Com: -0.193D-05 0.116D-05 0.462D-06 0.830D-03-0.348D-02 0.358D-02
 Coeff-Com:  0.625D-01-0.299D+00 0.124D+01
 Coeff:     -0.193D-05 0.116D-05 0.462D-06 0.830D-03-0.348D-02 0.358D-02
 Coeff:      0.625D-01-0.299D+00 0.124D+01
 Gap=     0.537 Goal=   None    Shift=    0.000
 RMSDP=1.55D-08 MaxDP=3.51D-07 DE=-1.60D-10 OVMax= 6.65D-07

 Cycle  10  Pass 1  IDiag  1:
 E= -76.0576718225423     Delta-E=       -0.000000000001 Rises=F Damp=F
 DIIS: error= 2.84D-08 at cycle  10 NSaved=  10.
 NSaved=10 IEnMin=10 EnMin= -76.0576718225423     IErMin=10 ErrMin= 2.84D-08
 ErrMax= 2.84D-08  0.00D+00 EMaxC= 1.00D-01 BMatC= 2.02D-14 BMatP= 5.85D-13
 IDIUse=1 WtCom= 1.00D+00 WtEn= 0.00D+00
 Coeff-Com:  0.512D-06-0.821D-06-0.147D-05-0.188D-03 0.837D-03-0.132D-02
 Coeff-Com: -0.126D-01 0.721D-01-0.428D+00 0.137D+01
 Coeff:      0.512D-06-0.821D-06-0.147D-05-0.188D-03 0.837D-03-0.132D-02
 Coeff:     -0.126D-01 0.721D-01-0.428D+00 0.137D+01
 Gap=     0.537 Goal=   None    Shift=    0.000
 RMSDP=3.41D-09 MaxDP=6.75D-08 DE=-1.45D-12 OVMax= 1.23D-07

 SCF Done:  E(RHF) =  -76.0576718225     A.U. after   10 cycles
            NFock= 10  Conv=0.34D-08     -V/T= 2.0017
 KE= 7.592957747304D+01 PE=-1.989262641862D+02 EE= 3.778565595647D+01
 Leave Link  502 at Wed Feb  8 13:53:08 2023, MaxMem=   754974720 cpu:               5.8 elap:               1.9
 (Enter /opt/cluster/programs/g16-c.01/g16/l801.exe)
 Windowed orbitals will be sorted by symmetry type.
 ExpMin= 2.53D-02 ExpMax= 1.53D+04 ExpMxC= 5.22D+02 IAcc=3 IRadAn=         5 AccDes= 0.00D+00
 HarFok:  IExCor=  205 AccDes= 0.00D+00 IRadAn=         5 IDoV=-2 UseB2=F ITyADJ=14
 ICtDFT= 12500011 ScaDFX=  1.000000  1.000000  1.000000  1.000000
 Largest valence mixing into a core orbital is  1.10D-04
 Largest core mixing into a valence orbital is  1.72D-05
 Range of M.O.s used for correlation:     2    92
 NBasis=    92 NAE=     5 NBE=     5 NFC=     1 NFV=     0
 NROrb=     91 NOA=     4 NOB=     4 NVA=    87 NVB=    87

 **** Warning!!: The largest alpha MO coefficient is  0.15727816D+02

 Leave Link  801 at Wed Feb  8 13:53:08 2023, MaxMem=   754974720 cpu:               0.6 elap:               0.2
 (Enter /opt/cluster/programs/g16-c.01/g16/l804.exe)
 Closed-shell transformation, MDV=   754974720 ITran=4 ISComp=2.
 Unit  1 TFree=        277513 TCopy=        242092.
 Semi-Direct transformation.
 ModeAB=           4 MOrb=             4 LenV=     754589018
 LASXX=       368428 LTotXX=      368428 LenRXX=      751146
 LTotAB=      382718 MaxLAS=     1379560 LenRXY=           0
 NonZer=     1119574 LenScr=     2357760 LnRSAI=     1379560
 LnScr1=     2758656 LExtra=           0 Total=      7247122
 MaxDsk=          -1 SrtSym=           T ITran=            4
 DoSDTr:  NPSUse=  4
 JobTyp=0 Pass  1:  I=   1 to   4.
 (rs|ai) integrals will be sorted in core.
 Complete sort for first half transformation.
 First half transformation complete.
 Complete sort for second half transformation.
 Second half transformation complete.
 Spin components of T(2) and E(2):
     alpha-alpha T2 =       0.8102227843D-02 E2=     -0.3254473823D-01
     alpha-beta  T2 =       0.4701596967D-01 E2=     -0.2028643617D+00
     beta-beta   T2 =       0.8102227843D-02 E2=     -0.3254473823D-01
 ANorm=    0.1031125805D+01
 E2 =    -0.2679538382D+00 EUMP2 =    -0.76325625660704D+02
 Leave Link  804 at Wed Feb  8 13:53:09 2023, MaxMem=   754974720 cpu:               1.7 elap:               0.5
 (Enter /opt/cluster/programs/g16-c.01/g16/l913.exe)
 CIDS:  MDV=   754974720.
 Frozen-core window:  NFC=   1 NFV=   0.
 IFCWin=0 IBDFC=1 NFBD=     0     0 NFCmp=     0     0 NFFFC=     0     0
 Using DD3R+UMP44R for 1st iteration.
 Using DD4RQ for 2nd and later iterations.
 Keep R2 and R3 ints in memory in symmetry-blocked form, NReq=11500115.
 FoFCou: FMM=F IPFlag=           0 FMFlag=           0 FMFlg1=           0
         NFxFlg=           0 DoJE=F BraDBF=F KetDBF=F FulRan=T
         wScrn=  0.000000 ICntrl=       600 IOpCl=  0 I1Cent=           0 NGrid=           0
         NMat0=    1 NMatS0=   4278 NMatT0=    0 NMatD0=    1 NMtDS0=    0 NMtDT0=    0
 Petite list used in FoFCou.
 CIDS: In Core Option IDoMem=           1.
 CCSD(T)
 =======
 Iterations=  50 Convergence= 0.100D-06
 Produce multiple copies of IABC intergrals
 Iteration Nr.   1
 **********************
 DD1Dir will call FoFMem   1 times, MxPair=        20
 NAB=    10 NAA=     0 NBB=     0.
 MP4(R+Q)=  0.40243413D-02
 Maximum subspace dimension=  5
 A-vector RMS=  2.8348839D-03 Max=  1.2170005D-02 conv= 1.00D-05.
 RLE energy=       -0.2666108611
 E3=       -0.27158167D-02        EUMP3=      -0.76328341477D+02
 E4(DQ)=   -0.61299412D-03        UMP4(DQ)=   -0.76328954472D+02
 E4(SDQ)=  -0.24603899D-02        UMP4(SDQ)=  -0.76330801867D+02
 VARIATIONAL ENERGIES WITH THE FIRST-ORDER WAVEFUNCTION:
 DE(Corr)= -0.26660410     E(Corr)=     -76.324275925    
 NORM(A)=   0.10309584D+01
 Iteration Nr.   2
 **********************
 DD1Dir will call FoFMem   1 times, MxPair=        20
 NAB=    10 NAA=     0 NBB=     0.
 A-vector RMS=  3.0464450D-04 Max=  2.1889240D-03 conv= 1.00D-05.
 RLE energy=       -0.2723079206
 DE(Corr)= -0.27192718     E(CORR)=     -76.329599006     Delta=-5.32D-03
 NORM(A)=   0.10330360D+01
 Iteration Nr.   3
 **********************
 DD1Dir will call FoFMem   1 times, MxPair=        20
 NAB=    10 NAA=     0 NBB=     0.
 A-vector RMS=  3.9766978D-04 Max=  2.2478092D-03 conv= 1.00D-05.
 RLE energy=       -0.2726120897
 DE(Corr)= -0.27224739     E(CORR)=     -76.329919210     Delta=-3.20D-04
 NORM(A)=   0.10334376D+01
 Iteration Nr.   4
 **********************
 DD1Dir will call FoFMem   1 times, MxPair=        20
 NAB=    10 NAA=     0 NBB=     0.
 A-vector RMS=  6.0231453D-05 Max=  3.7974909D-04 conv= 1.00D-05.
 RLE energy=       -0.2726437172
 DE(Corr)= -0.27261654     E(CORR)=     -76.330288359     Delta=-3.69D-04
 NORM(A)=   0.10335460D+01
 Iteration Nr.   5
 **********************
 DD1Dir will call FoFMem   1 times, MxPair=        20
 NAB=    10 NAA=     0 NBB=     0.
 A-vector RMS=  3.0330071D-05 Max=  1.9193433D-04 conv= 1.00D-05.
 RLE energy=       -0.2726553750
 DE(Corr)= -0.27265020     E(CORR)=     -76.330322019     Delta=-3.37D-05
 NORM(A)=   0.10335682D+01
 Iteration Nr.   6
 **********************
 DD1Dir will call FoFMem   1 times, MxPair=        20
 NAB=    10 NAA=     0 NBB=     0.
 A-vector RMS=  7.1106897D-06 Max=  3.9390377D-05 conv= 1.00D-05.
 RLE energy=       -0.2726518829
 DE(Corr)= -0.27265279     E(CORR)=     -76.330324615     Delta=-2.60D-06
 NORM(A)=   0.10335701D+01
 Iteration Nr.   7
 **********************
 DD1Dir will call FoFMem   1 times, MxPair=        20
 NAB=    10 NAA=     0 NBB=     0.
 A-vector RMS=  2.6933744D-06 Max=  1.4203860D-05 conv= 1.00D-05.
 RLE energy=       -0.2726518677
 DE(Corr)= -0.27265279     E(CORR)=     -76.330324610     Delta= 5.33D-09
 NORM(A)=   0.10335708D+01
 Iteration Nr.   8
 **********************
 DD1Dir will call FoFMem   1 times, MxPair=        20
 NAB=    10 NAA=     0 NBB=     0.
 A-vector RMS=  1.0054267D-06 Max=  4.6527852D-06 conv= 1.00D-05.
 RLE energy=       -0.2726524334
 DE(Corr)= -0.27265254     E(CORR)=     -76.330324367     Delta= 2.43D-07
 NORM(A)=   0.10335711D+01
 Iteration Nr.   9
 **********************
 DD1Dir will call FoFMem   1 times, MxPair=        20
 NAB=    10 NAA=     0 NBB=     0.
 A-vector RMS=  3.0821288D-07 Max=  1.7849544D-06 conv= 1.00D-05.
 RLE energy=       -0.2726525422
 DE(Corr)= -0.27265256     E(CORR)=     -76.330324381     Delta=-1.40D-08
 NORM(A)=   0.10335713D+01
 CI/CC converged in    9 iterations to DelEn=-1.40D-08 Conv= 1.00D-07 ErrA1= 3.08D-07 Conv= 1.00D-05
 Wavefunction amplitudes converged. E(Corr)=     -76.330324381    
 Largest amplitude= 2.08D-02
 IPart=  4 IA=    6   11.23% done.
 IPart=  2 IA=   11   21.79% done.
 IPart=  1 IA=   16   31.68% done.
 IPart=  4 IA=   21   40.90% done.
 IPart=  1 IA=   27   51.08% done.
 IPart=  3 IA=   33   60.30% done.
 IPart=  3 IA=   41   71.10% done.
 IPart=  3 IA=   49   80.19% done.
 IPart=  4 IA=   61   90.62% done.
 Time for triples=        6.19 seconds.
 T4(CCSD)= -0.89189406D-02
 T5(CCSD)=  0.31676045D-03
 CCSD(T)= -0.76338926561D+02
 Discarding MO integrals.
 Leave Link  913 at Wed Feb  8 13:53:11 2023, MaxMem=   754974720 cpu:              10.1 elap:               2.7
 (Enter /opt/cluster/programs/g16-c.01/g16/l601.exe)
 Copying SCF densities to generalized density rwf, IOpCl= 0 IROHF=0.

 **********************************************************************

            Population analysis using the SCF Density.

 **********************************************************************

 Orbital symmetries:
       Occupied  (A1) (A1) (B2) (A1) (B1)
       Virtual   (A1) (B2) (A1) (B1) (A1) (B2) (B2) (A1) (A2) (B1)
                 (A1) (B2) (A1) (B2) (B2) (A1) (A2) (A1) (B1) (A1)
                 (B1) (A1) (B2) (A2) (B2) (B1) (A1) (A1) (B2) (B1)
                 (B2) (A2) (A1) (B2) (A2) (A1) (B1) (B2) (A1) (B2)
                 (A1) (B1) (A1) (A2) (B1) (A1) (B2) (A1) (B2) (B1)
                 (A1) (A2) (B2) (B2) (A1) (A2) (B1) (B2) (A1) (B1)
                 (B1) (A2) (B2) (A1) (A1) (B2) (B2) (A2) (A1) (B2)
                 (B1) (A1) (A1) (B2) (B1) (A1) (B1) (A1) (A2) (B1)
                 (A2) (B2) (A1) (B2) (A1) (B2) (A1)
 The electronic state is 1-A1.
 Alpha  occ. eigenvalues --  -20.56183  -1.34456  -0.73806  -0.56172  -0.50652
 Alpha virt. eigenvalues --    0.03007   0.04697   0.13741   0.15653   0.17185
 Alpha virt. eigenvalues --    0.18026   0.23130   0.24286   0.26098   0.31359
 Alpha virt. eigenvalues --    0.31989   0.36404   0.43582   0.46617   0.60808
 Alpha virt. eigenvalues --    0.64486   0.71342   0.71402   0.72695   0.82326
 Alpha virt. eigenvalues --    0.84302   0.88998   0.90947   0.91499   0.92558
 Alpha virt. eigenvalues --    0.93586   0.99141   1.02287   1.04529   1.08920
 Alpha virt. eigenvalues --    1.12806   1.16232   1.16886   1.26700   1.52554
 Alpha virt. eigenvalues --    1.60464   1.61455   1.70551   1.78889   2.03371
 Alpha virt. eigenvalues --    2.11544   2.24998   2.31019   2.32449   2.38451
 Alpha virt. eigenvalues --    2.39315   2.42681   2.45586   2.71512   2.72276
 Alpha virt. eigenvalues --    2.77716   2.87190   2.93711   3.61991   3.78747
 Alpha virt. eigenvalues --    4.00507   4.09054   4.19562   4.24415   4.37206
 Alpha virt. eigenvalues --    4.39447   4.39562   4.43074   4.52785   4.65272
 Alpha virt. eigenvalues --    4.71182   5.13448   5.20326   5.29228   5.41108
 Alpha virt. eigenvalues --    5.48096   5.80580   6.01303   6.56401   6.69296
 Alpha virt. eigenvalues --    6.77278   7.15058   7.23168   7.25212   7.27867
 Alpha virt. eigenvalues --    7.37578   7.52112   7.58384   7.79254   8.04058
 Alpha virt. eigenvalues --    8.71949  15.94197
          Condensed to atoms (all electrons):
               1          2          3
     1  O    7.885832   0.279606   0.279606
     2  H    0.279606   0.484236   0.013636
     3  H    0.279606   0.013636   0.484236
 Mulliken charges:
               1
     1  O   -0.445045
     2  H    0.222522
     3  H    0.222522
 Sum of Mulliken charges =  -0.00000
 Mulliken charges with hydrogens summed into heavy atoms:
               1
     1  O   -0.000000
 Electronic spatial extent (au):  <R**2>=             19.5215
 Charge=             -0.0000 electrons
 Dipole moment (field-independent basis, Debye):
    X=             -0.0000    Y=              0.0000    Z=             -1.7742  Tot=              1.7742
 Quadrupole moment (field-independent basis, Debye-Ang):
   XX=             -7.5855   YY=             -3.7237   ZZ=             -6.6030
   XY=              0.0000   XZ=              0.0000   YZ=              0.0000
 Traceless Quadrupole moment (field-independent basis, Debye-Ang):
   XX=             -1.6148   YY=              2.2470   ZZ=             -0.6323
   XY=              0.0000   XZ=              0.0000   YZ=              0.0000
 Octapole moment (field-independent basis, Debye-Ang**2):
  XXX=              0.0000  YYY=             -0.0000  ZZZ=             -0.9125  XYY=             -0.0000
  XXY=             -0.0000  XXZ=             -0.2271  XZZ=              0.0000  YZZ=             -0.0000
  YYZ=             -1.4025  XYZ=             -0.0000
 Hexadecapole moment (field-independent basis, Debye-Ang**3):
 XXXX=             -6.8070 YYYY=             -5.5158 ZZZZ=             -7.2295 XXXY=             -0.0000
 XXXZ=             -0.0000 YYYX=              0.0000 YYYZ=              0.0000 ZZZX=             -0.0000
 ZZZY=              0.0000 XXYY=             -2.5108 XXZZ=             -2.3658 YYZZ=             -1.9829
 XXYZ=              0.0000 YYXZ=              0.0000 ZZXY=             -0.0000
 N-N= 9.153358934132D+00 E-N=-1.989262642102D+02  KE= 7.592957747304D+01
 Symmetry A1   KE= 6.794039107489D+01
 Symmetry A2   KE= 3.998851188451D-20
 Symmetry B1   KE= 4.451834197318D+00
 Symmetry B2   KE= 3.537352200831D+00
 Leave Link  601 at Wed Feb  8 13:53:12 2023, MaxMem=   754974720 cpu:               1.3 elap:               0.6
 (Enter /opt/cluster/programs/g16-c.01/g16/l9999.exe)
 Unable to Open any file for archive entry.
 1\1\GINC-NODE66\SP\RCCSD(T)-FC\Aug-CC-pVTZ\H2O1\BOITTIER\08-Feb-2023\0
 \\#P CCSD(T)/aug-cc-pVTZ scf(maxcycle=200)\\Gaussian input\\0,1\O,0,0.
 ,0.11751,0.\H,0,0.7578497316,-0.4701504329,0.\H,0,-0.8637050384,-0.299
 2568492,0.\\Version=ES64L-G16RevC.01\State=1-A1\HF=-76.0576718\MP2=-76
 .3256257\MP3=-76.3283415\MP4D=-76.3329788\MP4DQ=-76.3289545\MP4SDQ=-76
 .3308019\CCSD=-76.3303244\CCSD(T)=-76.3389266\RMSD=3.409e-09\PG=C02V [
 C2(O1),SGV(H2)]\\@
 The archive entry for this job was punched.


 TERENCE, THIS IS STUPID STUFF:
 YOU EAT YOUR VICTUALS FAST ENOUGH;
 THERE CAN'T BE MUCH AMISS, 'TIS CLEAR
 TO SEE THE RATE YOU DRINK YOUR BEER.
 BUT OH, GOOD LORD, THE VERSE YOU MAKE,
 IT GIVES A CHAP THE BELLY-ACHE.
 THE COW, THE OLD COW, SHE IS DEAD;
 IT SLEEPS WELL, THE HORNED HEAD:
 WE POOR LADS, 'TIS OUR TURN NOW
 TO HEAR SUCH TUNES AS KILLED THE COW.
 PRETTY FRIENDSHIP 'TIS TO RHYME
 YOUR FRIENDS TO DEATH BEFORE THEIR TIME.
 MOPING, MELANCHOLY MAD:
 COME PIPE A TUNE TO DANCE TO, LAD.

     -- A. E. HOUSMAN
 Job cpu time:       0 days  0 hours  0 minutes 25.4 seconds.
 Elapsed time:       0 days  0 hours  0 minutes  8.1 seconds.
 File lengths (MBytes):  RWF=     64 Int=      0 D2E=      0 Chk=      2 Scr=      1
 Normal termination of Gaussian 16 at Wed Feb  8 13:53:12 2023.
