 Entering Gaussian System, Link 0=/opt/cluster/programs/g16-c.01/g16/g16
 Input=/scratch/boittier/jobs/tmp.7261813/gaussian_138_water_ccsdt_atz.com
 Output=/scratch/boittier/jobs/tmp.7261813/gaussian_138_water_ccsdt_atz.out
 Initial command:
 /opt/cluster/programs/g16-c.01/g16/l1.exe "/scratch/boittier/jobs/tmp.7261813/Gau-108105.inp" -scrdir="/scratch/boittier/jobs/tmp.7261813/"
 Entering Link 1 = /opt/cluster/programs/g16-c.01/g16/l1.exe PID=    108106.
  
 Copyright (c) 1988-2019, Gaussian, Inc.  All Rights Reserved.
  
 This is part of the Gaussian(R) 16 program.  It is based on
 the Gaussian(R) 09 system (copyright 2009, Gaussian, Inc.),
 the Gaussian(R) 03 system (copyright 2003, Gaussian, Inc.),
 the Gaussian(R) 98 system (copyright 1998, Gaussian, Inc.),
 the Gaussian(R) 94 system (copyright 1995, Gaussian, Inc.),
 the Gaussian 92(TM) system (copyright 1992, Gaussian, Inc.),
 the Gaussian 90(TM) system (copyright 1990, Gaussian, Inc.),
 the Gaussian 88(TM) system (copyright 1988, Gaussian, Inc.),
 the Gaussian 86(TM) system (copyright 1986, Carnegie Mellon
 University), and the Gaussian 82(TM) system (copyright 1983,
 Carnegie Mellon University). Gaussian is a federally registered
 trademark of Gaussian, Inc.
  
 This software contains proprietary and confidential information,
 including trade secrets, belonging to Gaussian, Inc.
  
 This software is provided under written license and may be
 used, copied, transmitted, or stored only in accord with that
 written license.
  
 The following legend is applicable only to US Government
 contracts under FAR:
  
                    RESTRICTED RIGHTS LEGEND
  
 Use, reproduction and disclosure by the US Government is
 subject to restrictions as set forth in subparagraphs (a)
 and (c) of the Commercial Computer Software - Restricted
 Rights clause in FAR 52.227-19.
  
 Gaussian, Inc.
 340 Quinnipiac St., Bldg. 40, Wallingford CT 06492
  
  
 ---------------------------------------------------------------
 Warning -- This program may not be used in any manner that
 competes with the business of Gaussian, Inc. or will provide
 assistance to any competitor of Gaussian, Inc.  The licensee
 of this program is prohibited from giving any competitor of
 Gaussian, Inc. access to this program.  By using this program,
 the user acknowledges that Gaussian, Inc. is engaged in the
 business of creating and licensing software in the field of
 computational chemistry and represents and warrants to the
 licensee that it is not a competitor of Gaussian, Inc. and that
 it will not use this program in any manner prohibited above.
 ---------------------------------------------------------------
  

 Cite this work as:
 Gaussian 16, Revision C.01,
 M. J. Frisch, G. W. Trucks, H. B. Schlegel, G. E. Scuseria, 
 M. A. Robb, J. R. Cheeseman, G. Scalmani, V. Barone, 
 G. A. Petersson, H. Nakatsuji, X. Li, M. Caricato, A. V. Marenich, 
 J. Bloino, B. G. Janesko, R. Gomperts, B. Mennucci, H. P. Hratchian, 
 J. V. Ortiz, A. F. Izmaylov, J. L. Sonnenberg, D. Williams-Young, 
 F. Ding, F. Lipparini, F. Egidi, J. Goings, B. Peng, A. Petrone, 
 T. Henderson, D. Ranasinghe, V. G. Zakrzewski, J. Gao, N. Rega, 
 G. Zheng, W. Liang, M. Hada, M. Ehara, K. Toyota, R. Fukuda, 
 J. Hasegawa, M. Ishida, T. Nakajima, Y. Honda, O. Kitao, H. Nakai, 
 T. Vreven, K. Throssell, J. A. Montgomery, Jr., J. E. Peralta, 
 F. Ogliaro, M. J. Bearpark, J. J. Heyd, E. N. Brothers, K. N. Kudin, 
 V. N. Staroverov, T. A. Keith, R. Kobayashi, J. Normand, 
 K. Raghavachari, A. P. Rendell, J. C. Burant, S. S. Iyengar, 
 J. Tomasi, M. Cossi, J. M. Millam, M. Klene, C. Adamo, R. Cammi, 
 J. W. Ochterski, R. L. Martin, K. Morokuma, O. Farkas, 
 J. B. Foresman, and D. J. Fox, Gaussian, Inc., Wallingford CT, 2019.
 
 ******************************************
 Gaussian 16:  ES64L-G16RevC.01  3-Jul-2019
                 8-Feb-2023 
 ******************************************
 %nproc=4
 Will use up to    4 processors via shared memory.
 %mem=5760MB
 %chk=gaussian_138_water_ccsdt_atz.chk
 ----------------------------------------
 #P CCSD(T)/aug-cc-pVTZ scf(maxcycle=200)
 ----------------------------------------
 1/38=1,172=1/1;
 2/12=2,17=6,18=5,40=1/2;
 3/5=16,6=1,7=10,11=9,25=1,30=1/1,2,3;
 4//1;
 5/5=2,7=200,38=5/2;
 8/6=4,9=120000,10=1/1,4;
 9/5=7,14=2/13;
 6/7=2,8=2,9=2,10=2/1;
 99/5=1,9=1/99;
 Leave Link    1 at Wed Feb  8 13:55:41 2023, MaxMem=   754974720 cpu:               0.1 elap:               0.0
 (Enter /opt/cluster/programs/g16-c.01/g16/l101.exe)
 --------------
 Gaussian input
 --------------
 Symbolic Z-matrix:
 Charge =  0 Multiplicity = 1
 O                     0.        0.11751   0. 
 H                     0.79736  -0.50079   0. 
 H                    -0.84424  -0.21946   0. 
 
 ITRead=  0  0  0
 MicOpt= -1 -1 -1
 NAtoms=      3 NQM=        3 NQMF=       0 NMMI=      0 NMMIF=      0
                NMic=       0 NMicF=      0.
                    Isotopes and Nuclear Properties:
 (Nuclear quadrupole moments (NQMom) in fm**2, nuclear magnetic moments (NMagM)
  in nuclear magnetons)

  Atom         1           2           3
 IAtWgt=          16           1           1
 AtmWgt=  15.9949146   1.0078250   1.0078250
 NucSpn=           0           1           1
 AtZEff=  -0.0000000  -0.0000000  -0.0000000
 NQMom=    0.0000000   0.0000000   0.0000000
 NMagM=    0.0000000   2.7928460   2.7928460
 AtZNuc=   8.0000000   1.0000000   1.0000000
 Leave Link  101 at Wed Feb  8 13:55:42 2023, MaxMem=   754974720 cpu:               0.6 elap:               0.2
 (Enter /opt/cluster/programs/g16-c.01/g16/l202.exe)
                          Input orientation:                          
 ---------------------------------------------------------------------
 Center     Atomic      Atomic             Coordinates (Angstroms)
 Number     Number       Type             X           Y           Z
 ---------------------------------------------------------------------
      1          8           0        0.000000    0.117510    0.000000
      2          1           0        0.797362   -0.500790    0.000000
      3          1           0       -0.844236   -0.219458    0.000000
 ---------------------------------------------------------------------
                    Distance matrix (angstroms):
                    1          2          3
     1  O    0.000000
     2  H    1.009000   0.000000
     3  H    0.909000   1.665530   0.000000
 Stoichiometry    H2O
 Framework group  CS[SG(H2O)]
 Deg. of freedom     3
 Full point group                 CS      NOp   2
 Largest Abelian subgroup         CS      NOp   2
 Largest concise Abelian subgroup C1      NOp   1
                         Standard orientation:                         
 ---------------------------------------------------------------------
 Center     Atomic      Atomic             Coordinates (Angstroms)
 Number     Number       Type             X           Y           Z
 ---------------------------------------------------------------------
      1          8           0        0.000000    0.095642   -0.000000
      2          1           0        0.826707   -0.482837    0.000000
      3          1           0       -0.826707   -0.282296   -0.000000
 ---------------------------------------------------------------------
 Rotational constants (GHZ):        1260.1831355         359.4007128         279.6463533
 Leave Link  202 at Wed Feb  8 13:55:42 2023, MaxMem=   754974720 cpu:               0.1 elap:               0.0
 (Enter /opt/cluster/programs/g16-c.01/g16/l301.exe)
 Standard basis: Aug-CC-pVTZ (5D, 7F)
 Ernie: Thresh=  0.10000D-02 Tol=  0.10000D-05 Strict=F.
 Ernie:  3 primitive shells out of 52 were deleted.
 There are    73 symmetry adapted cartesian basis functions of A'  symmetry.
 There are    32 symmetry adapted cartesian basis functions of A"  symmetry.
 There are    62 symmetry adapted basis functions of A'  symmetry.
 There are    30 symmetry adapted basis functions of A"  symmetry.
    92 basis functions,   126 primitive gaussians,   105 cartesian basis functions
     5 alpha electrons        5 beta electrons
       nuclear repulsion energy         9.1706048959 Hartrees.
 IExCor=    0 DFT=F Ex=HF Corr=None ExCW=0 ScaHFX=  1.000000
 ScaDFX=  1.000000  1.000000  1.000000  1.000000 ScalE2=  1.000000  1.000000
 IRadAn=      5 IRanWt=     -1 IRanGd=            0 ICorTp=0 IEmpDi=  4
 NAtoms=    3 NActive=    3 NUniq=    3 SFac= 1.00D+00 NAtFMM=   60 NAOKFM=F Big=F
 Integral buffers will be    131072 words long.
 Raffenetti 1 integral format.
 Two-electron integral symmetry is turned on.
 Leave Link  301 at Wed Feb  8 13:55:42 2023, MaxMem=   754974720 cpu:               0.1 elap:               0.0
 (Enter /opt/cluster/programs/g16-c.01/g16/l302.exe)
 NPDir=0 NMtPBC=     1 NCelOv=     1 NCel=       1 NClECP=     1 NCelD=      1
         NCelK=      1 NCelE2=     1 NClLst=     1 CellRange=     0.0.
 One-electron integrals computed using PRISM.
 One-electron integral symmetry used in STVInt
 NBasis=    92 RedAO= T EigKep=  3.11D-04  NBF=    62    30
 NBsUse=    92 1.00D-06 EigRej= -1.00D+00 NBFU=    62    30
 Leave Link  302 at Wed Feb  8 13:55:42 2023, MaxMem=   754974720 cpu:               0.4 elap:               0.1
 (Enter /opt/cluster/programs/g16-c.01/g16/l303.exe)
 DipDrv:  MaxL=1.
 Leave Link  303 at Wed Feb  8 13:55:42 2023, MaxMem=   754974720 cpu:               0.2 elap:               0.1
 (Enter /opt/cluster/programs/g16-c.01/g16/l401.exe)
 ExpMin= 2.53D-02 ExpMax= 1.53D+04 ExpMxC= 5.22D+02 IAcc=3 IRadAn=         5 AccDes= 0.00D+00
 Harris functional with IExCor=  205 and IRadAn=       5 diagonalized for initial guess.
 HarFok:  IExCor=  205 AccDes= 0.00D+00 IRadAn=         5 IDoV= 1 UseB2=F ITyADJ=14
 ICtDFT=  3500011 ScaDFX=  1.000000  1.000000  1.000000  1.000000
 FoFCou: FMM=F IPFlag=           0 FMFlag=      100000 FMFlg1=           0
         NFxFlg=           0 DoJE=T BraDBF=F KetDBF=T FulRan=T
         wScrn=  0.000000 ICntrl=       500 IOpCl=  0 I1Cent=   200000004 NGrid=           0
         NMat0=    1 NMatS0=      1 NMatT0=    0 NMatD0=    1 NMtDS0=    0 NMtDT0=    0
 Petite list used in FoFCou.
 Harris En= -76.1475884732229    
 JPrj=0 DoOrth=F DoCkMO=F.
 Initial guess orbital symmetries:
       Occupied  (A') (A') (A') (A') (A")
       Virtual   (A') (A') (A') (A") (A') (A') (A') (A') (A") (A')
                 (A") (A') (A') (A') (A') (A') (A') (A") (A") (A')
                 (A') (A") (A") (A') (A") (A') (A') (A') (A') (A")
                 (A') (A') (A") (A') (A") (A') (A") (A') (A') (A')
                 (A') (A") (A") (A') (A') (A") (A') (A') (A") (A')
                 (A') (A") (A') (A') (A') (A") (A") (A') (A') (A")
                 (A') (A") (A") (A') (A') (A') (A') (A") (A') (A')
                 (A") (A') (A') (A') (A") (A') (A") (A') (A") (A")
                 (A") (A') (A') (A') (A') (A') (A')
 The electronic state of the initial guess is 1-A'.
 Leave Link  401 at Wed Feb  8 13:55:42 2023, MaxMem=   754974720 cpu:               0.6 elap:               0.2
 (Enter /opt/cluster/programs/g16-c.01/g16/l502.exe)
 Keep R1 ints in memory in symmetry-blocked form, NReq=13818732.
 FoFCou: FMM=F IPFlag=           0 FMFlag=           0 FMFlg1=           0
         NFxFlg=           0 DoJE=F BraDBF=F KetDBF=F FulRan=T
         wScrn=  0.000000 ICntrl=       600 IOpCl=  0 I1Cent=           0 NGrid=           0
         NMat0=    1 NMatS0=   4278 NMatT0=    0 NMatD0=    1 NMtDS0=    0 NMtDT0=    0
 Petite list used in FoFCou.
 Closed shell SCF:
 Using DIIS extrapolation, IDIIS=  1040.
 NGot=   754974720 LenX=   750285684 LenY=   750274218
 Requested convergence on RMS density matrix=1.00D-08 within 200 cycles.
 Requested convergence on MAX density matrix=1.00D-06.
 Requested convergence on             energy=1.00D-06.
 No special actions if energy rises.

 Cycle   1  Pass 1  IDiag  1:
 E= -75.9565756332316    
 DIIS: error= 6.22D-02 at cycle   1 NSaved=   1.
 NSaved= 1 IEnMin= 1 EnMin= -75.9565756332316     IErMin= 1 ErrMin= 6.22D-02
 ErrMax= 6.22D-02  0.00D+00 EMaxC= 1.00D-01 BMatC= 2.11D-01 BMatP= 2.11D-01
 IDIUse=3 WtCom= 3.78D-01 WtEn= 6.22D-01
 Coeff-Com:  0.100D+01
 Coeff-En:   0.100D+01
 Coeff:      0.100D+01
 Gap=     0.449 Goal=   None    Shift=    0.000
 GapD=    0.449 DampG=2.000 DampE=0.500 DampFc=1.0000 IDamp=-1.
 RMSDP=2.22D-03 MaxDP=5.03D-02              OVMax= 1.27D-01

 Cycle   2  Pass 1  IDiag  1:
 E= -76.0115015017839     Delta-E=       -0.054925868552 Rises=F Damp=F
 DIIS: error= 4.05D-02 at cycle   2 NSaved=   2.
 NSaved= 2 IEnMin= 2 EnMin= -76.0115015017839     IErMin= 2 ErrMin= 4.05D-02
 ErrMax= 4.05D-02  0.00D+00 EMaxC= 1.00D-01 BMatC= 6.26D-02 BMatP= 2.11D-01
 IDIUse=3 WtCom= 5.95D-01 WtEn= 4.05D-01
 Coeff-Com:  0.326D+00 0.674D+00
 Coeff-En:   0.202D+00 0.798D+00
 Coeff:      0.276D+00 0.724D+00
 Gap=     0.563 Goal=   None    Shift=    0.000
 RMSDP=1.30D-03 MaxDP=3.05D-02 DE=-5.49D-02 OVMax= 6.69D-02

 Cycle   3  Pass 1  IDiag  1:
 E= -76.0483533992134     Delta-E=       -0.036851897430 Rises=F Damp=F
 DIIS: error= 8.62D-03 at cycle   3 NSaved=   3.
 NSaved= 3 IEnMin= 3 EnMin= -76.0483533992134     IErMin= 3 ErrMin= 8.62D-03
 ErrMax= 8.62D-03  0.00D+00 EMaxC= 1.00D-01 BMatC= 3.00D-03 BMatP= 6.26D-02
 IDIUse=3 WtCom= 9.14D-01 WtEn= 8.62D-02
 Coeff-Com: -0.305D-01 0.148D+00 0.882D+00
 Coeff-En:   0.000D+00 0.000D+00 0.100D+01
 Coeff:     -0.278D-01 0.136D+00 0.892D+00
 Gap=     0.533 Goal=   None    Shift=    0.000
 RMSDP=2.22D-04 MaxDP=4.39D-03 DE=-3.69D-02 OVMax= 1.24D-02

 Cycle   4  Pass 1  IDiag  1:
 E= -76.0502155830730     Delta-E=       -0.001862183860 Rises=F Damp=F
 DIIS: error= 6.30D-04 at cycle   4 NSaved=   4.
 NSaved= 4 IEnMin= 4 EnMin= -76.0502155830730     IErMin= 4 ErrMin= 6.30D-04
 ErrMax= 6.30D-04  0.00D+00 EMaxC= 1.00D-01 BMatC= 1.52D-05 BMatP= 3.00D-03
 IDIUse=3 WtCom= 9.94D-01 WtEn= 6.30D-03
 Coeff-Com:  0.609D-02-0.518D-01-0.222D+00 0.127D+01
 Coeff-En:   0.000D+00 0.000D+00 0.000D+00 0.100D+01
 Coeff:      0.605D-02-0.515D-01-0.220D+00 0.127D+01
 Gap=     0.535 Goal=   None    Shift=    0.000
 RMSDP=3.97D-05 MaxDP=7.17D-04 DE=-1.86D-03 OVMax= 2.60D-03

 Cycle   5  Pass 1  IDiag  1:
 E= -76.0502416859015     Delta-E=       -0.000026102828 Rises=F Damp=F
 DIIS: error= 1.83D-04 at cycle   5 NSaved=   5.
 NSaved= 5 IEnMin= 5 EnMin= -76.0502416859015     IErMin= 5 ErrMin= 1.83D-04
 ErrMax= 1.83D-04  0.00D+00 EMaxC= 1.00D-01 BMatC= 8.35D-07 BMatP= 1.52D-05
 IDIUse=3 WtCom= 9.98D-01 WtEn= 1.83D-03
 Coeff-Com:  0.715D-03-0.183D-03-0.717D-02-0.269D+00 0.128D+01
 Coeff-En:   0.000D+00 0.000D+00 0.000D+00 0.000D+00 0.100D+01
 Coeff:      0.714D-03-0.182D-03-0.716D-02-0.268D+00 0.127D+01
 Gap=     0.535 Goal=   None    Shift=    0.000
 RMSDP=1.37D-05 MaxDP=2.55D-04 DE=-2.61D-05 OVMax= 9.76D-04

 Cycle   6  Pass 1  IDiag  1:
 E= -76.0502439359861     Delta-E=       -0.000002250085 Rises=F Damp=F
 DIIS: error= 3.15D-05 at cycle   6 NSaved=   6.
 NSaved= 6 IEnMin= 6 EnMin= -76.0502439359861     IErMin= 6 ErrMin= 3.15D-05
 ErrMax= 3.15D-05  0.00D+00 EMaxC= 1.00D-01 BMatC= 2.71D-08 BMatP= 8.35D-07
 IDIUse=1 WtCom= 1.00D+00 WtEn= 0.00D+00
 Coeff-Com: -0.336D-03 0.183D-02 0.872D-02 0.332D-02-0.280D+00 0.127D+01
 Coeff:     -0.336D-03 0.183D-02 0.872D-02 0.332D-02-0.280D+00 0.127D+01
 Gap=     0.535 Goal=   None    Shift=    0.000
 RMSDP=2.97D-06 MaxDP=6.27D-05 DE=-2.25D-06 OVMax= 2.26D-04

 Cycle   7  Pass 1  IDiag  1:
 E= -76.0502440265260     Delta-E=       -0.000000090540 Rises=F Damp=F
 DIIS: error= 6.09D-06 at cycle   7 NSaved=   7.
 NSaved= 7 IEnMin= 7 EnMin= -76.0502440265260     IErMin= 7 ErrMin= 6.09D-06
 ErrMax= 6.09D-06  0.00D+00 EMaxC= 1.00D-01 BMatC= 1.62D-09 BMatP= 2.71D-08
 IDIUse=1 WtCom= 1.00D+00 WtEn= 0.00D+00
 Coeff-Com:  0.267D-04-0.389D-03-0.167D-02 0.188D-01-0.276D-01-0.218D+00
 Coeff-Com:  0.123D+01
 Coeff:      0.267D-04-0.389D-03-0.167D-02 0.188D-01-0.276D-01-0.218D+00
 Coeff:      0.123D+01
 Gap=     0.535 Goal=   None    Shift=    0.000
 RMSDP=4.97D-07 MaxDP=1.21D-05 DE=-9.05D-08 OVMax= 4.60D-05

 Cycle   8  Pass 1  IDiag  1:
 E= -76.0502440305651     Delta-E=       -0.000000004039 Rises=F Damp=F
 DIIS: error= 1.85D-06 at cycle   8 NSaved=   8.
 NSaved= 8 IEnMin= 8 EnMin= -76.0502440305651     IErMin= 8 ErrMin= 1.85D-06
 ErrMax= 1.85D-06  0.00D+00 EMaxC= 1.00D-01 BMatC= 8.96D-11 BMatP= 1.62D-09
 IDIUse=1 WtCom= 1.00D+00 WtEn= 0.00D+00
 Coeff-Com:  0.118D-04-0.640D-06 0.269D-04-0.564D-02 0.230D-01-0.855D-03
 Coeff-Com: -0.390D+00 0.137D+01
 Coeff:      0.118D-04-0.640D-06 0.269D-04-0.564D-02 0.230D-01-0.855D-03
 Coeff:     -0.390D+00 0.137D+01
 Gap=     0.535 Goal=   None    Shift=    0.000
 RMSDP=1.43D-07 MaxDP=3.20D-06 DE=-4.04D-09 OVMax= 9.95D-06

 Cycle   9  Pass 1  IDiag  1:
 E= -76.0502440307895     Delta-E=       -0.000000000224 Rises=F Damp=F
 DIIS: error= 1.98D-07 at cycle   9 NSaved=   9.
 NSaved= 9 IEnMin= 9 EnMin= -76.0502440307895     IErMin= 9 ErrMin= 1.98D-07
 ErrMax= 1.98D-07  0.00D+00 EMaxC= 1.00D-01 BMatC= 9.50D-13 BMatP= 8.96D-11
 IDIUse=1 WtCom= 1.00D+00 WtEn= 0.00D+00
 Coeff-Com: -0.138D-05 0.810D-05 0.308D-04-0.757D-05-0.101D-02 0.401D-02
 Coeff-Com:  0.821D-02-0.123D+00 0.111D+01
 Coeff:     -0.138D-05 0.810D-05 0.308D-04-0.757D-05-0.101D-02 0.401D-02
 Coeff:      0.821D-02-0.123D+00 0.111D+01
 Gap=     0.535 Goal=   None    Shift=    0.000
 RMSDP=1.75D-08 MaxDP=3.62D-07 DE=-2.24D-10 OVMax= 7.73D-07

 Cycle  10  Pass 1  IDiag  1:
 E= -76.0502440307914     Delta-E=       -0.000000000002 Rises=F Damp=F
 DIIS: error= 3.52D-08 at cycle  10 NSaved=  10.
 NSaved=10 IEnMin=10 EnMin= -76.0502440307914     IErMin=10 ErrMin= 3.52D-08
 ErrMax= 3.52D-08  0.00D+00 EMaxC= 1.00D-01 BMatC= 4.27D-14 BMatP= 9.50D-13
 IDIUse=1 WtCom= 1.00D+00 WtEn= 0.00D+00
 Coeff-Com: -0.196D-06-0.928D-06-0.459D-05 0.169D-03-0.505D-03-0.537D-03
 Coeff-Com:  0.119D-01-0.312D-01-0.135D+00 0.116D+01
 Coeff:     -0.196D-06-0.928D-06-0.459D-05 0.169D-03-0.505D-03-0.537D-03
 Coeff:      0.119D-01-0.312D-01-0.135D+00 0.116D+01
 Gap=     0.535 Goal=   None    Shift=    0.000
 RMSDP=3.83D-09 MaxDP=8.30D-08 DE=-1.90D-12 OVMax= 1.45D-07

 SCF Done:  E(RHF) =  -76.0502440308     A.U. after   10 cycles
            NFock= 10  Conv=0.38D-08     -V/T= 2.0015
 KE= 7.593980141786D+01 PE=-1.989668750978D+02 EE= 3.780622475329D+01
 Leave Link  502 at Wed Feb  8 13:55:43 2023, MaxMem=   754974720 cpu:               2.2 elap:               0.6
 (Enter /opt/cluster/programs/g16-c.01/g16/l801.exe)
 Windowed orbitals will be sorted by symmetry type.
 ExpMin= 2.53D-02 ExpMax= 1.53D+04 ExpMxC= 5.22D+02 IAcc=3 IRadAn=         5 AccDes= 0.00D+00
 HarFok:  IExCor=  205 AccDes= 0.00D+00 IRadAn=         5 IDoV=-2 UseB2=F ITyADJ=14
 ICtDFT= 12500011 ScaDFX=  1.000000  1.000000  1.000000  1.000000
 Largest valence mixing into a core orbital is  1.09D-04
 Largest core mixing into a valence orbital is  1.71D-05
 Range of M.O.s used for correlation:     2    92
 NBasis=    92 NAE=     5 NBE=     5 NFC=     1 NFV=     0
 NROrb=     91 NOA=     4 NOB=     4 NVA=    87 NVB=    87

 **** Warning!!: The largest alpha MO coefficient is  0.15205243D+02

 Leave Link  801 at Wed Feb  8 13:55:43 2023, MaxMem=   754974720 cpu:               0.3 elap:               0.1
 (Enter /opt/cluster/programs/g16-c.01/g16/l804.exe)
 Closed-shell transformation, MDV=   754974720 ITran=4 ISComp=2.
 Unit  1 TFree=        277501 TCopy=        343607.
 Semi-Direct transformation.
 ModeAB=           2 MOrb=             4 LenV=     754586778
 LASXX=       736380 LTotXX=      736380 LenRXX=      736380
 LTotAB=      763744 MaxLAS=     2025660 LenRXY=     2025660
 NonZer=     2107560 LenScr=     3929600 LnRSAI=           0
 LnScr1=           0 LExtra=           0 Total=      6691640
 MaxDsk=          -1 SrtSym=           F ITran=            4
 DoSDTr:  NPSUse=  4
 JobTyp=0 Pass  1:  I=   1 to   4.
 (rs|ai) integrals will be sorted in core.
 Complete sort for first half transformation.
 First half transformation complete.
 Complete sort for second half transformation.
 Second half transformation complete.
 Spin components of T(2) and E(2):
     alpha-alpha T2 =       0.8099471479D-02 E2=     -0.3255309762D-01
     alpha-beta  T2 =       0.4704285651D-01 E2=     -0.2028115578D+00
     beta-beta   T2 =       0.8099471479D-02 E2=     -0.3255309762D-01
 ANorm=    0.1031136169D+01
 E2 =    -0.2679177530D+00 EUMP2 =    -0.76318161783797D+02
 Leave Link  804 at Wed Feb  8 13:55:43 2023, MaxMem=   754974720 cpu:               2.4 elap:               0.6
 (Enter /opt/cluster/programs/g16-c.01/g16/l913.exe)
 CIDS:  MDV=   754974720.
 Frozen-core window:  NFC=   1 NFV=   0.
 IFCWin=0 IBDFC=1 NFBD=     0     0 NFCmp=     0     0 NFFFC=     0     0
 Using DD3R+UMP44R for 1st iteration.
 Using DD4RQ for 2nd and later iterations.
 Keep R2 and R3 ints in memory in symmetry-blocked form, NReq=13979827.
 FoFCou: FMM=F IPFlag=           0 FMFlag=           0 FMFlg1=           0
         NFxFlg=           0 DoJE=F BraDBF=F KetDBF=F FulRan=T
         wScrn=  0.000000 ICntrl=       600 IOpCl=  0 I1Cent=           0 NGrid=           0
         NMat0=    1 NMatS0=   4278 NMatT0=    0 NMatD0=    1 NMtDS0=    0 NMtDT0=    0
 Petite list used in FoFCou.
 CIDS: In Core Option IDoMem=           1.
 CCSD(T)
 =======
 Iterations=  50 Convergence= 0.100D-06
 Produce multiple copies of IABC intergrals
 Iteration Nr.   1
 **********************
 DD1Dir will call FoFMem   1 times, MxPair=        20
 NAB=    10 NAA=     0 NBB=     0.
 MP4(R+Q)=  0.40300616D-02
 Maximum subspace dimension=  5
 A-vector RMS=  2.8415345D-03 Max=  1.2205475D-02 conv= 1.00D-05.
 RLE energy=       -0.2665745645
 E3=       -0.27217163D-02        EUMP3=      -0.76320883500D+02
 E4(DQ)=   -0.60753472D-03        UMP4(DQ)=   -0.76321491035D+02
 E4(SDQ)=  -0.24530752D-02        UMP4(SDQ)=  -0.76323336575D+02
 VARIATIONAL ENERGIES WITH THE FIRST-ORDER WAVEFUNCTION:
 DE(Corr)= -0.26656780     E(Corr)=     -76.316811834    
 NORM(A)=   0.10309802D+01
 Iteration Nr.   2
 **********************
 DD1Dir will call FoFMem   1 times, MxPair=        20
 NAB=    10 NAA=     0 NBB=     0.
 A-vector RMS=  3.0817701D-04 Max=  2.1920104D-03 conv= 1.00D-05.
 RLE energy=       -0.2722706484
 DE(Corr)= -0.27188766     E(CORR)=     -76.322131689     Delta=-5.32D-03
 NORM(A)=   0.10330711D+01
 Iteration Nr.   3
 **********************
 DD1Dir will call FoFMem   1 times, MxPair=        20
 NAB=    10 NAA=     0 NBB=     0.
 A-vector RMS=  4.0110222D-04 Max=  2.2639840D-03 conv= 1.00D-05.
 RLE energy=       -0.2725773824
 DE(Corr)= -0.27220985     E(CORR)=     -76.322453884     Delta=-3.22D-04
 NORM(A)=   0.10334785D+01
 Iteration Nr.   4
 **********************
 DD1Dir will call FoFMem   1 times, MxPair=        20
 NAB=    10 NAA=     0 NBB=     0.
 A-vector RMS=  6.0864241D-05 Max=  3.8356916D-04 conv= 1.00D-05.
 RLE energy=       -0.2726090466
 DE(Corr)= -0.27258159     E(CORR)=     -76.322825624     Delta=-3.72D-04
 NORM(A)=   0.10335887D+01
 Iteration Nr.   5
 **********************
 DD1Dir will call FoFMem   1 times, MxPair=        20
 NAB=    10 NAA=     0 NBB=     0.
 A-vector RMS=  3.0454448D-05 Max=  1.9048618D-04 conv= 1.00D-05.
 RLE energy=       -0.2726208350
 DE(Corr)= -0.27261565     E(CORR)=     -76.322859677     Delta=-3.41D-05
 NORM(A)=   0.10336110D+01
 Iteration Nr.   6
 **********************
 DD1Dir will call FoFMem   1 times, MxPair=        20
 NAB=    10 NAA=     0 NBB=     0.
 A-vector RMS=  7.2142525D-06 Max=  3.8058133D-05 conv= 1.00D-05.
 RLE energy=       -0.2726173592
 DE(Corr)= -0.27261828     E(CORR)=     -76.322862310     Delta=-2.63D-06
 NORM(A)=   0.10336130D+01
 Iteration Nr.   7
 **********************
 DD1Dir will call FoFMem   1 times, MxPair=        20
 NAB=    10 NAA=     0 NBB=     0.
 A-vector RMS=  2.9136789D-06 Max=  1.5639219D-05 conv= 1.00D-05.
 RLE energy=       -0.2726173281
 DE(Corr)= -0.27261828     E(CORR)=     -76.322862313     Delta=-3.53D-09
 NORM(A)=   0.10336136D+01
 Iteration Nr.   8
 **********************
 DD1Dir will call FoFMem   1 times, MxPair=        20
 NAB=    10 NAA=     0 NBB=     0.
 A-vector RMS=  1.1014864D-06 Max=  5.2831132D-06 conv= 1.00D-05.
 RLE energy=       -0.2726179113
 DE(Corr)= -0.27261803     E(CORR)=     -76.322862064     Delta= 2.49D-07
 NORM(A)=   0.10336140D+01
 Iteration Nr.   9
 **********************
 DD1Dir will call FoFMem   1 times, MxPair=        20
 NAB=    10 NAA=     0 NBB=     0.
 A-vector RMS=  3.6587563D-07 Max=  2.0608695D-06 conv= 1.00D-05.
 RLE energy=       -0.2726180331
 DE(Corr)= -0.27261805     E(CORR)=     -76.322862081     Delta=-1.69D-08
 NORM(A)=   0.10336141D+01
 CI/CC converged in    9 iterations to DelEn=-1.69D-08 Conv= 1.00D-07 ErrA1= 3.66D-07 Conv= 1.00D-05
 Wavefunction amplitudes converged. E(Corr)=     -76.322862081    
 Largest amplitude= 1.94D-02
 IPart=  1 IA=    6   11.23% done.
 IPart=  3 IA=   11   21.79% done.
 IPart=  3 IA=   16   31.68% done.
 IPart=  4 IA=   21   40.90% done.
 IPart=  3 IA=   27   51.08% done.
 IPart=  1 IA=   33   60.30% done.
 IPart=  4 IA=   41   71.10% done.
 IPart=  4 IA=   49   80.19% done.
 IPart=  3 IA=   61   90.62% done.
 Time for triples=        6.43 seconds.
 T4(CCSD)= -0.89263487D-02
 T5(CCSD)=  0.31782036D-03
 CCSD(T)= -0.76331470609D+02
 Discarding MO integrals.
 Leave Link  913 at Wed Feb  8 13:55:47 2023, MaxMem=   754974720 cpu:              12.3 elap:               3.1
 (Enter /opt/cluster/programs/g16-c.01/g16/l601.exe)
 Copying SCF densities to generalized density rwf, IOpCl= 0 IROHF=0.

 **********************************************************************

            Population analysis using the SCF Density.

 **********************************************************************

 Orbital symmetries:
       Occupied  (A') (A') (A') (A') (A")
       Virtual   (A') (A') (A') (A") (A') (A') (A') (A') (A") (A")
                 (A') (A') (A') (A') (A') (A') (A") (A') (A") (A')
                 (A") (A') (A') (A") (A') (A") (A') (A') (A') (A")
                 (A') (A") (A') (A') (A") (A') (A") (A') (A') (A')
                 (A') (A") (A') (A") (A") (A') (A') (A') (A') (A")
                 (A') (A") (A') (A') (A') (A") (A") (A') (A') (A")
                 (A') (A") (A") (A') (A') (A') (A') (A") (A') (A')
                 (A") (A') (A') (A') (A") (A') (A") (A") (A') (A")
                 (A") (A') (A') (A') (A') (A') (A')
 The electronic state is 1-A'.
 Alpha  occ. eigenvalues --  -20.55914  -1.34441  -0.74457  -0.55385  -0.50535
 Alpha virt. eigenvalues --    0.03011   0.04679   0.13757   0.15564   0.16915
 Alpha virt. eigenvalues --    0.18001   0.23187   0.24244   0.25977   0.31852
 Alpha virt. eigenvalues --    0.32368   0.36346   0.42930   0.46976   0.61128
 Alpha virt. eigenvalues --    0.64228   0.71186   0.71384   0.72332   0.82224
 Alpha virt. eigenvalues --    0.84583   0.88967   0.90703   0.91154   0.92652
 Alpha virt. eigenvalues --    0.94128   1.00014   1.01555   1.06049   1.08959
 Alpha virt. eigenvalues --    1.13652   1.15766   1.16217   1.28475   1.53050
 Alpha virt. eigenvalues --    1.61297   1.62821   1.66421   1.78758   2.00678
 Alpha virt. eigenvalues --    2.15773   2.24347   2.29786   2.33189   2.36645
 Alpha virt. eigenvalues --    2.37744   2.40561   2.48823   2.73138   2.73415
 Alpha virt. eigenvalues --    2.79396   2.85588   2.98071   3.59119   3.80891
 Alpha virt. eigenvalues --    4.01024   4.10390   4.15845   4.26493   4.36054
 Alpha virt. eigenvalues --    4.39238   4.40028   4.41716   4.56847   4.61601
 Alpha virt. eigenvalues --    4.68512   5.06173   5.16782   5.39516   5.47336
 Alpha virt. eigenvalues --    5.54067   5.85214   5.96292   6.58693   6.68410
 Alpha virt. eigenvalues --    6.74229   7.12579   7.16945   7.20438   7.32762
 Alpha virt. eigenvalues --    7.45179   7.56332   7.67997   7.75680   8.10028
 Alpha virt. eigenvalues --    8.68456  16.18634
          Condensed to atoms (all electrons):
               1          2          3
     1  O    7.871507   0.280606   0.285996
     2  H    0.280606   0.441112   0.013357
     3  H    0.285996   0.013357   0.527462
 Mulliken charges:
               1
     1  O   -0.438109
     2  H    0.264925
     3  H    0.173184
 Sum of Mulliken charges =   0.00000
 Mulliken charges with hydrogens summed into heavy atoms:
               1
     1  O    0.000000
 Electronic spatial extent (au):  <R**2>=             19.5322
 Charge=              0.0000 electrons
 Dipole moment (field-independent basis, Debye):
    X=             -0.0204    Y=             -1.7040    Z=              0.0000  Tot=              1.7041
 Quadrupole moment (field-independent basis, Debye-Ang):
   XX=             -3.5953   YY=             -6.6640   ZZ=             -7.5927
   XY=             -0.4140   XZ=              0.0000   YZ=              0.0000
 Traceless Quadrupole moment (field-independent basis, Debye-Ang):
   XX=              2.3554   YY=             -0.7133   ZZ=             -1.6420
   XY=             -0.4140   XZ=              0.0000   YZ=              0.0000
 Octapole moment (field-independent basis, Debye-Ang**2):
  XXX=             -0.0953  YYY=             -0.8803  ZZZ=              0.0000  XYY=              0.2318
  XXY=             -1.3702  XXZ=              0.0000  XZZ=             -0.0499  YZZ=             -0.2125
  YYZ=              0.0000  XYZ=             -0.0000
 Hexadecapole moment (field-independent basis, Debye-Ang**3):
 XXXX=             -5.3662 YYYY=             -7.2533 ZZZZ=             -6.8341 XXXY=             -0.1290
 XXXZ=              0.0000 YYYX=              0.0134 YYYZ=              0.0000 ZZZX=             -0.0000
 ZZZY=              0.0000 XXYY=             -2.0028 XXZZ=             -2.5222 YYZZ=             -2.3769
 XXYZ=             -0.0000 YYXZ=             -0.0000 ZZXY=              0.0744
 N-N= 9.170604895894D+00 E-N=-1.989668747379D+02  KE= 7.593980141786D+01
 Symmetry A'   KE= 7.149167391493D+01
 Symmetry A"   KE= 4.448127502932D+00
 Leave Link  601 at Wed Feb  8 13:55:47 2023, MaxMem=   754974720 cpu:               0.4 elap:               0.1
 (Enter /opt/cluster/programs/g16-c.01/g16/l9999.exe)
 Unable to Open any file for archive entry.
 1\1\GINC-NODE65\SP\RCCSD(T)-FC\Aug-CC-pVTZ\H2O1\BOITTIER\08-Feb-2023\0
 \\#P CCSD(T)/aug-cc-pVTZ scf(maxcycle=200)\\Gaussian input\\0,1\O,0,0.
 ,0.11751,0.\H,0,0.7973622306,-0.5007896629,0.\H,0,-0.8442356762,-0.219
 45754,0.\\Version=ES64L-G16RevC.01\State=1-A'\HF=-76.050244\MP2=-76.31
 81618\MP3=-76.3208835\MP4D=-76.3255211\MP4DQ=-76.321491\MP4SDQ=-76.323
 3366\CCSD=-76.3228621\CCSD(T)=-76.3314706\RMSD=3.825e-09\PG=CS [SG(H2O
 1)]\\@
 The archive entry for this job was punched.


 A MAN IS NEVER SO BRILLIANT AS WHEN HE TAKES THE WORDS RIGHT OUT
 OF YOUR MOUTH. -- ARNOT SHEPPARD, JR.
 Job cpu time:       0 days  0 hours  0 minutes 20.2 seconds.
 Elapsed time:       0 days  0 hours  0 minutes  5.3 seconds.
 File lengths (MBytes):  RWF=     75 Int=      0 D2E=      0 Chk=      2 Scr=      1
 Normal termination of Gaussian 16 at Wed Feb  8 13:55:47 2023.
