 Entering Gaussian System, Link 0=/opt/cluster/programs/g16-c.01/g16/g16
 Input=/scratch/boittier/jobs/tmp.7262053/gaussian_111_water_wb97_ptz.com
 Output=/scratch/boittier/jobs/tmp.7262053/gaussian_111_water_wb97_ptz.out
 Initial command:
 /opt/cluster/programs/g16-c.01/g16/l1.exe "/scratch/boittier/jobs/tmp.7262053/Gau-139009.inp" -scrdir="/scratch/boittier/jobs/tmp.7262053/"
 Entering Link 1 = /opt/cluster/programs/g16-c.01/g16/l1.exe PID=    139010.
  
 Copyright (c) 1988-2019, Gaussian, Inc.  All Rights Reserved.
  
 This is part of the Gaussian(R) 16 program.  It is based on
 the Gaussian(R) 09 system (copyright 2009, Gaussian, Inc.),
 the Gaussian(R) 03 system (copyright 2003, Gaussian, Inc.),
 the Gaussian(R) 98 system (copyright 1998, Gaussian, Inc.),
 the Gaussian(R) 94 system (copyright 1995, Gaussian, Inc.),
 the Gaussian 92(TM) system (copyright 1992, Gaussian, Inc.),
 the Gaussian 90(TM) system (copyright 1990, Gaussian, Inc.),
 the Gaussian 88(TM) system (copyright 1988, Gaussian, Inc.),
 the Gaussian 86(TM) system (copyright 1986, Carnegie Mellon
 University), and the Gaussian 82(TM) system (copyright 1983,
 Carnegie Mellon University). Gaussian is a federally registered
 trademark of Gaussian, Inc.
  
 This software contains proprietary and confidential information,
 including trade secrets, belonging to Gaussian, Inc.
  
 This software is provided under written license and may be
 used, copied, transmitted, or stored only in accord with that
 written license.
  
 The following legend is applicable only to US Government
 contracts under FAR:
  
                    RESTRICTED RIGHTS LEGEND
  
 Use, reproduction and disclosure by the US Government is
 subject to restrictions as set forth in subparagraphs (a)
 and (c) of the Commercial Computer Software - Restricted
 Rights clause in FAR 52.227-19.
  
 Gaussian, Inc.
 340 Quinnipiac St., Bldg. 40, Wallingford CT 06492
  
  
 ---------------------------------------------------------------
 Warning -- This program may not be used in any manner that
 competes with the business of Gaussian, Inc. or will provide
 assistance to any competitor of Gaussian, Inc.  The licensee
 of this program is prohibited from giving any competitor of
 Gaussian, Inc. access to this program.  By using this program,
 the user acknowledges that Gaussian, Inc. is engaged in the
 business of creating and licensing software in the field of
 computational chemistry and represents and warrants to the
 licensee that it is not a competitor of Gaussian, Inc. and that
 it will not use this program in any manner prohibited above.
 ---------------------------------------------------------------
  

 Cite this work as:
 Gaussian 16, Revision C.01,
 M. J. Frisch, G. W. Trucks, H. B. Schlegel, G. E. Scuseria, 
 M. A. Robb, J. R. Cheeseman, G. Scalmani, V. Barone, 
 G. A. Petersson, H. Nakatsuji, X. Li, M. Caricato, A. V. Marenich, 
 J. Bloino, B. G. Janesko, R. Gomperts, B. Mennucci, H. P. Hratchian, 
 J. V. Ortiz, A. F. Izmaylov, J. L. Sonnenberg, D. Williams-Young, 
 F. Ding, F. Lipparini, F. Egidi, J. Goings, B. Peng, A. Petrone, 
 T. Henderson, D. Ranasinghe, V. G. Zakrzewski, J. Gao, N. Rega, 
 G. Zheng, W. Liang, M. Hada, M. Ehara, K. Toyota, R. Fukuda, 
 J. Hasegawa, M. Ishida, T. Nakajima, Y. Honda, O. Kitao, H. Nakai, 
 T. Vreven, K. Throssell, J. A. Montgomery, Jr., J. E. Peralta, 
 F. Ogliaro, M. J. Bearpark, J. J. Heyd, E. N. Brothers, K. N. Kudin, 
 V. N. Staroverov, T. A. Keith, R. Kobayashi, J. Normand, 
 K. Raghavachari, A. P. Rendell, J. C. Burant, S. S. Iyengar, 
 J. Tomasi, M. Cossi, J. M. Millam, M. Klene, C. Adamo, R. Cammi, 
 J. W. Ochterski, R. L. Martin, K. Morokuma, O. Farkas, 
 J. B. Foresman, and D. J. Fox, Gaussian, Inc., Wallingford CT, 2019.
 
 ******************************************
 Gaussian 16:  ES64L-G16RevC.01  3-Jul-2019
                 8-Feb-2023 
 ******************************************
 %nproc=4
 Will use up to    4 processors via shared memory.
 %mem=5760MB
 %chk=gaussian_111_water_wb97_ptz.chk
 ------------------------------------
 #P wB97XD/6-311g** scf(maxcycle=200)
 ------------------------------------
 1/38=1,172=1/1;
 2/12=2,17=6,18=5,40=1/2;
 3/5=4,6=6,7=101,11=2,25=1,30=1,74=-58/1,2,3;
 4//1;
 5/5=2,7=200,38=5/2;
 6/7=2,8=2,9=2,10=2,28=1/1;
 99/5=1,9=1/99;
 Leave Link    1 at Wed Feb  8 14:41:46 2023, MaxMem=   754974720 cpu:               0.1 elap:               0.1
 (Enter /opt/cluster/programs/g16-c.01/g16/l101.exe)
 --------------
 Gaussian input
 --------------
 Symbolic Z-matrix:
 Charge =  0 Multiplicity = 1
 O                     0.        0.11751   0. 
 H                     0.75785  -0.47015   0. 
 H                    -0.81879  -0.47212   0. 
 
 ITRead=  0  0  0
 MicOpt= -1 -1 -1
 NAtoms=      3 NQM=        3 NQMF=       0 NMMI=      0 NMMIF=      0
                NMic=       0 NMicF=      0.
                    Isotopes and Nuclear Properties:
 (Nuclear quadrupole moments (NQMom) in fm**2, nuclear magnetic moments (NMagM)
  in nuclear magnetons)

  Atom         1           2           3
 IAtWgt=          16           1           1
 AtmWgt=  15.9949146   1.0078250   1.0078250
 NucSpn=           0           1           1
 AtZEff=  -0.0000000  -0.0000000  -0.0000000
 NQMom=    0.0000000   0.0000000   0.0000000
 NMagM=    0.0000000   2.7928460   2.7928460
 AtZNuc=   8.0000000   1.0000000   1.0000000
 Leave Link  101 at Wed Feb  8 14:41:46 2023, MaxMem=   754974720 cpu:               0.3 elap:               0.2
 (Enter /opt/cluster/programs/g16-c.01/g16/l202.exe)
                          Input orientation:                          
 ---------------------------------------------------------------------
 Center     Atomic      Atomic             Coordinates (Angstroms)
 Number     Number       Type             X           Y           Z
 ---------------------------------------------------------------------
      1          8           0        0.000000    0.117510    0.000000
      2          1           0        0.757850   -0.470150    0.000000
      3          1           0       -0.818787   -0.472125    0.000000
 ---------------------------------------------------------------------
                    Distance matrix (angstroms):
                    1          2          3
     1  O    0.000000
     2  H    0.959000   0.000000
     3  H    1.009000   1.576638   0.000000
 Stoichiometry    H2O
 Framework group  CS[SG(H2O)]
 Deg. of freedom     3
 Full point group                 CS      NOp   2
 Largest Abelian subgroup         CS      NOp   2
 Largest concise Abelian subgroup C1      NOp   1
                         Standard orientation:                         
 ---------------------------------------------------------------------
 Center     Atomic      Atomic             Coordinates (Angstroms)
 Number     Number       Type             X           Y           Z
 ---------------------------------------------------------------------
      1          8           0        0.000000    0.117887    0.000000
      2          1           0        0.787213   -0.429814    0.000000
      3          1           0       -0.787213   -0.513283    0.000000
 ---------------------------------------------------------------------
 Rotational constants (GHZ):         817.1200287         402.3518652         269.6001190
 Leave Link  202 at Wed Feb  8 14:41:46 2023, MaxMem=   754974720 cpu:               0.2 elap:               0.1
 (Enter /opt/cluster/programs/g16-c.01/g16/l301.exe)
 Standard basis: 6-311G(d,p) (5D, 7F)
 Ernie: Thresh=  0.10000D-02 Tol=  0.10000D-05 Strict=F.
 There are    24 symmetry adapted cartesian basis functions of A'  symmetry.
 There are     7 symmetry adapted cartesian basis functions of A"  symmetry.
 There are    23 symmetry adapted basis functions of A'  symmetry.
 There are     7 symmetry adapted basis functions of A"  symmetry.
    30 basis functions,    48 primitive gaussians,    31 cartesian basis functions
     5 alpha electrons        5 beta electrons
       nuclear repulsion energy         8.9457017307 Hartrees.
 IExCor= 4639 DFT=T Ex+Corr=wB97XD ExCW=0 ScaHFX=  1.000000
 ScaDFX=  1.000000  1.000000  1.000000  1.000000 ScalE2=  1.000000  1.000000
 IRadAn=      5 IRanWt=     -1 IRanGd=            0 ICorTp=0 IEmpDi=121
 HFx  wShort=  0.000000 wLong=  0.200000 cFull=  0.222036 cShort=  0.000000 cLong=  0.777964
 DFx  wShort=  0.000000 wLong=  0.200000 cFull=  0.000000 cShort=  0.000000 cLong=  1.000000
 NAtoms=    3 NActive=    3 NUniq=    3 SFac= 1.00D+00 NAtFMM=   60 NAOKFM=F Big=F
 Integral buffers will be    131072 words long.
 Raffenetti 2 integral format.
 Two-electron integral symmetry is turned on.
 R6Disp:  Grimme-D2 Dispersion energy=       -0.0000339512 Hartrees.
 Nuclear repulsion after empirical dispersion term =        8.9456677795 Hartrees.
 Leave Link  301 at Wed Feb  8 14:41:47 2023, MaxMem=   754974720 cpu:               0.3 elap:               0.1
 (Enter /opt/cluster/programs/g16-c.01/g16/l302.exe)
 NPDir=0 NMtPBC=     1 NCelOv=     1 NCel=       1 NClECP=     1 NCelD=      1
         NCelK=      1 NCelE2=     1 NClLst=     1 CellRange=     0.0.
 One-electron integrals computed using PRISM.
 One-electron integral symmetry used in STVInt
 NBasis=    30 RedAO= T EigKep=  1.99D-02  NBF=    23     7
 NBsUse=    30 1.00D-06 EigRej= -1.00D+00 NBFU=    23     7
 Precomputing XC quadrature grid using
 IXCGrd= 4 IRadAn=           5 IRanWt=          -1 IRanGd=           0 AccXCQ= 0.00D+00.
 Generated NRdTot=       0 NPtTot=           0 NUsed=           0 NTot=          32
 NSgBfM=    31    31    31    31    31 MxSgAt=     3 MxSgA2=     3.
 Leave Link  302 at Wed Feb  8 14:41:47 2023, MaxMem=   754974720 cpu:               0.7 elap:               0.3
 (Enter /opt/cluster/programs/g16-c.01/g16/l303.exe)
 DipDrv:  MaxL=1.
 Leave Link  303 at Wed Feb  8 14:41:47 2023, MaxMem=   754974720 cpu:               0.1 elap:               0.0
 (Enter /opt/cluster/programs/g16-c.01/g16/l401.exe)
 ExpMin= 1.03D-01 ExpMax= 8.59D+03 ExpMxC= 1.30D+03 IAcc=3 IRadAn=         5 AccDes= 0.00D+00
 Harris functional with IExCor= 4639 and IRadAn=       5 diagonalized for initial guess.
 HarFok:  IExCor= 4639 AccDes= 0.00D+00 IRadAn=         5 IDoV= 1 UseB2=F ITyADJ=14
 ICtDFT=  3500011 ScaDFX=  1.000000  1.000000  1.000000  1.000000
 FoFCou: FMM=F IPFlag=           0 FMFlag=      100000 FMFlg1=           0
         NFxFlg=           0 DoJE=T BraDBF=F KetDBF=T FulRan=T
         wScrn=  0.000000 ICntrl=       500 IOpCl=  0 I1Cent=   200000004 NGrid=           0
         NMat0=    1 NMatS0=      1 NMatT0=    0 NMatD0=    1 NMtDS0=    0 NMtDT0=    0
 Petite list used in FoFCou.
 Harris En= -73.6154586211970    
 JPrj=0 DoOrth=F DoCkMO=F.
 Initial guess orbital symmetries:
       Occupied  (A') (A') (A') (A') (A")
       Virtual   (A') (A') (A') (A') (A') (A") (A') (A') (A") (A')
                 (A") (A') (A') (A') (A') (A') (A") (A") (A') (A')
                 (A') (A") (A') (A') (A')
 The electronic state of the initial guess is 1-A'.
 Leave Link  401 at Wed Feb  8 14:41:47 2023, MaxMem=   754974720 cpu:               0.5 elap:               0.1
 (Enter /opt/cluster/programs/g16-c.01/g16/l502.exe)
 Keep R1 ints in memory in symmetry-blocked form, NReq=3688183.
 FoFCou: FMM=F IPFlag=           0 FMFlag=           0 FMFlg1=           0
         NFxFlg=           0 DoJE=F BraDBF=F KetDBF=F FulRan=T
         wScrn=  0.000000 ICntrl=       600 IOpCl=  0 I1Cent=           0 NGrid=           0
         NMat0=    1 NMatS0=    465 NMatT0=    0 NMatD0=    1 NMtDS0=    0 NMtDT0=    0
 Petite list used in FoFCou.
 Closed shell SCF:
 Using DIIS extrapolation, IDIIS=  1040.
 NGot=   754974720 LenX=   754911268 LenY=   754909866
 Requested convergence on RMS density matrix=1.00D-08 within 200 cycles.
 Requested convergence on MAX density matrix=1.00D-06.
 Requested convergence on             energy=1.00D-06.
 No special actions if energy rises.
 Integral accuracy reduced to 1.0D-05 until final iterations.

 Cycle   1  Pass 0  IDiag  1:
 E= -76.4101656263295    
 DIIS: error= 8.19D-02 at cycle   1 NSaved=   1.
 NSaved= 1 IEnMin= 1 EnMin= -76.4101656263295     IErMin= 1 ErrMin= 8.19D-02
 ErrMax= 8.19D-02  0.00D+00 EMaxC= 1.00D-01 BMatC= 1.30D-01 BMatP= 1.30D-01
 IDIUse=3 WtCom= 1.81D-01 WtEn= 8.19D-01
 Coeff-Com:  0.100D+01
 Coeff-En:   0.100D+01
 Coeff:      0.100D+01
 Gap=     0.489 Goal=   None    Shift=    0.000
 GapD=    0.489 DampG=2.000 DampE=0.500 DampFc=1.0000 IDamp=-1.
 RMSDP=2.70D-03 MaxDP=2.43D-02              OVMax= 3.53D-02

 Cycle   2  Pass 0  IDiag  1:
 E= -76.4204822427733     Delta-E=       -0.010316616444 Rises=F Damp=F
 DIIS: error= 4.08D-03 at cycle   2 NSaved=   2.
 NSaved= 2 IEnMin= 2 EnMin= -76.4204822427733     IErMin= 2 ErrMin= 4.08D-03
 ErrMax= 4.08D-03  0.00D+00 EMaxC= 1.00D-01 BMatC= 5.53D-04 BMatP= 1.30D-01
 IDIUse=3 WtCom= 9.59D-01 WtEn= 4.08D-02
 Coeff-Com:  0.451D-01 0.955D+00
 Coeff-En:   0.000D+00 0.100D+01
 Coeff:      0.433D-01 0.957D+00
 Gap=     0.499 Goal=   None    Shift=    0.000
 RMSDP=3.23D-04 MaxDP=3.11D-03 DE=-1.03D-02 OVMax= 4.82D-03

 Cycle   3  Pass 0  IDiag  1:
 E= -76.4206895485107     Delta-E=       -0.000207305737 Rises=F Damp=F
 DIIS: error= 9.75D-04 at cycle   3 NSaved=   3.
 NSaved= 3 IEnMin= 3 EnMin= -76.4206895485107     IErMin= 3 ErrMin= 9.75D-04
 ErrMax= 9.75D-04  0.00D+00 EMaxC= 1.00D-01 BMatC= 2.54D-05 BMatP= 5.53D-04
 IDIUse=3 WtCom= 9.90D-01 WtEn= 9.75D-03
 Coeff-Com:  0.839D-02 0.186D+00 0.806D+00
 Coeff-En:   0.000D+00 0.000D+00 0.100D+01
 Coeff:      0.831D-02 0.184D+00 0.808D+00
 Gap=     0.496 Goal=   None    Shift=    0.000
 RMSDP=1.30D-04 MaxDP=1.56D-03 DE=-2.07D-04 OVMax= 1.79D-03

 Cycle   4  Pass 0  IDiag  1:
 E= -76.4207024650721     Delta-E=       -0.000012916561 Rises=F Damp=F
 DIIS: error= 4.83D-04 at cycle   4 NSaved=   4.
 NSaved= 4 IEnMin= 4 EnMin= -76.4207024650721     IErMin= 4 ErrMin= 4.83D-04
 ErrMax= 4.83D-04  0.00D+00 EMaxC= 1.00D-01 BMatC= 6.30D-06 BMatP= 2.54D-05
 IDIUse=3 WtCom= 9.95D-01 WtEn= 4.83D-03
 Coeff-Com:  0.133D-02 0.437D-01 0.343D+00 0.612D+00
 Coeff-En:   0.000D+00 0.000D+00 0.000D+00 0.100D+01
 Coeff:      0.132D-02 0.434D-01 0.341D+00 0.614D+00
 Gap=     0.497 Goal=   None    Shift=    0.000
 RMSDP=4.32D-05 MaxDP=6.23D-04 DE=-1.29D-05 OVMax= 5.69D-04

 Cycle   5  Pass 0  IDiag  1:
 E= -76.4207062707766     Delta-E=       -0.000003805704 Rises=F Damp=F
 DIIS: error= 1.05D-04 at cycle   5 NSaved=   5.
 NSaved= 5 IEnMin= 5 EnMin= -76.4207062707766     IErMin= 5 ErrMin= 1.05D-04
 ErrMax= 1.05D-04  0.00D+00 EMaxC= 1.00D-01 BMatC= 2.54D-07 BMatP= 6.30D-06
 IDIUse=3 WtCom= 9.99D-01 WtEn= 1.05D-03
 Coeff-Com: -0.741D-03-0.193D-01-0.478D-01 0.122D+00 0.946D+00
 Coeff-En:   0.000D+00 0.000D+00 0.000D+00 0.000D+00 0.100D+01
 Coeff:     -0.741D-03-0.192D-01-0.478D-01 0.122D+00 0.946D+00
 Gap=     0.497 Goal=   None    Shift=    0.000
 RMSDP=1.88D-05 MaxDP=2.23D-04 DE=-3.81D-06 OVMax= 3.16D-04

 Cycle   6  Pass 0  IDiag  1:
 E= -76.4207065288520     Delta-E=       -0.000000258075 Rises=F Damp=F
 DIIS: error= 1.32D-05 at cycle   6 NSaved=   6.
 NSaved= 6 IEnMin= 6 EnMin= -76.4207065288520     IErMin= 6 ErrMin= 1.32D-05
 ErrMax= 1.32D-05  0.00D+00 EMaxC= 1.00D-01 BMatC= 3.84D-09 BMatP= 2.54D-07
 IDIUse=1 WtCom= 1.00D+00 WtEn= 0.00D+00
 Coeff-Com:  0.111D-03 0.245D-02 0.401D-02-0.446D-01-0.140D+00 0.118D+01
 Coeff:      0.111D-03 0.245D-02 0.401D-02-0.446D-01-0.140D+00 0.118D+01
 Gap=     0.497 Goal=   None    Shift=    0.000
 RMSDP=4.09D-06 MaxDP=4.60D-05 DE=-2.58D-07 OVMax= 6.84D-05

 Initial convergence to 1.0D-05 achieved.  Increase integral accuracy.
 Cycle   7  Pass 1  IDiag  1:
 E= -76.4207148981689     Delta-E=       -0.000008369317 Rises=F Damp=F
 DIIS: error= 9.62D-06 at cycle   1 NSaved=   1.
 NSaved= 1 IEnMin= 1 EnMin= -76.4207148981689     IErMin= 1 ErrMin= 9.62D-06
 ErrMax= 9.62D-06  0.00D+00 EMaxC= 1.00D-01 BMatC= 2.80D-09 BMatP= 2.80D-09
 IDIUse=1 WtCom= 1.00D+00 WtEn= 0.00D+00
 Coeff-Com:  0.100D+01
 Coeff:      0.100D+01
 Gap=     0.497 Goal=   None    Shift=    0.000
 RMSDP=4.09D-06 MaxDP=4.60D-05 DE=-8.37D-06 OVMax= 1.68D-05

 Cycle   8  Pass 1  IDiag  1:
 E= -76.4207149007314     Delta-E=       -0.000000002562 Rises=F Damp=F
 DIIS: error= 1.17D-06 at cycle   2 NSaved=   2.
 NSaved= 2 IEnMin= 2 EnMin= -76.4207149007314     IErMin= 2 ErrMin= 1.17D-06
 ErrMax= 1.17D-06  0.00D+00 EMaxC= 1.00D-01 BMatC= 5.94D-11 BMatP= 2.80D-09
 IDIUse=1 WtCom= 1.00D+00 WtEn= 0.00D+00
 Coeff-Com: -0.838D-01 0.108D+01
 Coeff:     -0.838D-01 0.108D+01
 Gap=     0.497 Goal=   None    Shift=    0.000
 RMSDP=3.63D-07 MaxDP=3.15D-06 DE=-2.56D-09 OVMax= 5.21D-06

 Cycle   9  Pass 1  IDiag  1:
 E= -76.4207149008082     Delta-E=       -0.000000000077 Rises=F Damp=F
 DIIS: error= 6.27D-07 at cycle   3 NSaved=   3.
 NSaved= 3 IEnMin= 3 EnMin= -76.4207149008082     IErMin= 3 ErrMin= 6.27D-07
 ErrMax= 6.27D-07  0.00D+00 EMaxC= 1.00D-01 BMatC= 1.60D-11 BMatP= 5.94D-11
 IDIUse=1 WtCom= 1.00D+00 WtEn= 0.00D+00
 Coeff-Com: -0.414D-01 0.380D+00 0.661D+00
 Coeff:     -0.414D-01 0.380D+00 0.661D+00
 Gap=     0.497 Goal=   None    Shift=    0.000
 RMSDP=9.83D-08 MaxDP=1.37D-06 DE=-7.68D-11 OVMax= 1.66D-06

 Cycle  10  Pass 1  IDiag  1:
 E= -76.4207149008196     Delta-E=       -0.000000000011 Rises=F Damp=F
 DIIS: error= 3.54D-07 at cycle   4 NSaved=   4.
 NSaved= 4 IEnMin= 4 EnMin= -76.4207149008196     IErMin= 4 ErrMin= 3.54D-07
 ErrMax= 3.54D-07  0.00D+00 EMaxC= 1.00D-01 BMatC= 2.20D-12 BMatP= 1.60D-11
 IDIUse=1 WtCom= 1.00D+00 WtEn= 0.00D+00
 Coeff-Com: -0.851D-02 0.317D-01 0.250D+00 0.727D+00
 Coeff:     -0.851D-02 0.317D-01 0.250D+00 0.727D+00
 Gap=     0.497 Goal=   None    Shift=    0.000
 RMSDP=3.57D-08 MaxDP=3.60D-07 DE=-1.14D-11 OVMax= 5.32D-07

 Cycle  11  Pass 1  IDiag  1:
 E= -76.4207149008217     Delta-E=       -0.000000000002 Rises=F Damp=F
 DIIS: error= 5.46D-08 at cycle   5 NSaved=   5.
 NSaved= 5 IEnMin= 5 EnMin= -76.4207149008217     IErMin= 5 ErrMin= 5.46D-08
 ErrMax= 5.46D-08  0.00D+00 EMaxC= 1.00D-01 BMatC= 7.66D-14 BMatP= 2.20D-12
 IDIUse=1 WtCom= 1.00D+00 WtEn= 0.00D+00
 Coeff-Com:  0.474D-02-0.444D-01-0.725D-01 0.109D-01 0.110D+01
 Coeff:      0.474D-02-0.444D-01-0.725D-01 0.109D-01 0.110D+01
 Gap=     0.497 Goal=   None    Shift=    0.000
 RMSDP=2.37D-08 MaxDP=2.53D-07 DE=-2.03D-12 OVMax= 4.86D-07

 Cycle  12  Pass 1  IDiag  1:
 E= -76.4207149008219     Delta-E=       -0.000000000000 Rises=F Damp=F
 DIIS: error= 1.28D-08 at cycle   6 NSaved=   6.
 NSaved= 6 IEnMin= 6 EnMin= -76.4207149008219     IErMin= 6 ErrMin= 1.28D-08
 ErrMax= 1.28D-08  0.00D+00 EMaxC= 1.00D-01 BMatC= 2.97D-15 BMatP= 7.66D-14
 IDIUse=1 WtCom= 1.00D+00 WtEn= 0.00D+00
 Coeff-Com:  0.114D-03 0.844D-03-0.142D-03-0.398D-01-0.674D-01 0.111D+01
 Coeff:      0.114D-03 0.844D-03-0.142D-03-0.398D-01-0.674D-01 0.111D+01
 Gap=     0.497 Goal=   None    Shift=    0.000
 RMSDP=3.71D-09 MaxDP=3.14D-08 DE=-2.70D-13 OVMax= 7.47D-08

 SCF Done:  E(RwB97XD) =  -76.4207149008     A.U. after   12 cycles
            NFock= 12  Conv=0.37D-08     -V/T= 2.0028
 KE= 7.621104262545D+01 PE=-1.990102444745D+02 EE= 3.743281916871D+01
 Leave Link  502 at Wed Feb  8 14:41:48 2023, MaxMem=   754974720 cpu:               2.4 elap:               0.8
 (Enter /opt/cluster/programs/g16-c.01/g16/l601.exe)
 Copying SCF densities to generalized density rwf, IOpCl= 0 IROHF=0.

 **********************************************************************

            Population analysis using the SCF Density.

 **********************************************************************

 Orbital symmetries:
       Occupied  (A') (A') (A') (A') (A")
       Virtual   (A') (A') (A') (A') (A') (A") (A') (A') (A") (A')
                 (A") (A') (A') (A') (A') (A') (A") (A") (A') (A')
                 (A') (A") (A') (A') (A')
 The electronic state is 1-A'.
 Alpha  occ. eigenvalues --  -19.22885  -1.09113  -0.60387  -0.45667  -0.38381
 Alpha virt. eigenvalues --    0.11340   0.18715   0.45260   0.49394   0.85233
 Alpha virt. eigenvalues --    0.85559   0.94763   1.15687   1.34047   1.37363
 Alpha virt. eigenvalues --    1.55360   1.70864   1.99068   2.11915   2.39098
 Alpha virt. eigenvalues --    2.56403   3.16322   3.24047   3.37477   3.68304
 Alpha virt. eigenvalues --    3.88733   4.87933   5.25428   5.67335  49.96087
          Condensed to atoms (all electrons):
               1          2          3
     1  O    7.872424   0.317789   0.308454
     2  H    0.317789   0.463300  -0.030451
     3  H    0.308454  -0.030451   0.472691
 Mulliken charges:
               1
     1  O   -0.498667
     2  H    0.249362
     3  H    0.249305
 Sum of Mulliken charges =  -0.00000
 Mulliken charges with hydrogens summed into heavy atoms:
               1
     1  O   -0.000000
 Electronic spatial extent (au):  <R**2>=             19.3618
 Charge=             -0.0000 electrons
 Dipole moment (field-independent basis, Debye):
    X=              0.0424    Y=             -2.0814    Z=              0.0000  Tot=              2.0818
 Quadrupole moment (field-independent basis, Debye-Ang):
   XX=             -4.0876   YY=             -6.0871   ZZ=             -7.2276
   XY=              0.1338   XZ=              0.0000   YZ=              0.0000
 Traceless Quadrupole moment (field-independent basis, Debye-Ang):
   XX=              1.7131   YY=             -0.2863   ZZ=             -1.4268
   XY=              0.1338   XZ=              0.0000   YZ=              0.0000
 Octapole moment (field-independent basis, Debye-Ang**2):
  XXX=              0.0990  YYY=             -1.2018  ZZZ=              0.0000  XYY=             -0.0809
  XXY=             -1.3410  XXZ=              0.0000  XZZ=              0.0365  YZZ=             -0.3096
  YYZ=              0.0000  XYZ=              0.0000
 Hexadecapole moment (field-independent basis, Debye-Ang**3):
 XXXX=             -5.9551 YYYY=             -6.3977 ZZZZ=             -5.3157 XXXY=             -0.0244
 XXXZ=              0.0000 YYYX=             -0.0146 YYYZ=              0.0000 ZZZX=              0.0000
 ZZZY=              0.0000 XXYY=             -1.7155 XXZZ=             -2.2063 YYZZ=             -2.0084
 XXYZ=              0.0000 YYXZ=              0.0000 ZZXY=             -0.0411
 N-N= 8.945667779478D+00 E-N=-1.990102446520D+02  KE= 7.621104262545D+01
 Symmetry A'   KE= 7.157153075808D+01
 Symmetry A"   KE= 4.639511867372D+00
 No NMR shielding tensors so no spin-rotation constants.
 Leave Link  601 at Wed Feb  8 14:41:48 2023, MaxMem=   754974720 cpu:               0.8 elap:               0.4
 (Enter /opt/cluster/programs/g16-c.01/g16/l9999.exe)
 Unable to Open any file for archive entry.
 1\1\GINC-NODE66\SP\RwB97XD\6-311G(d,p)\H2O1\BOITTIER\08-Feb-2023\0\\#P
  wB97XD/6-311g** scf(maxcycle=200)\\Gaussian input\\0,1\O,0,0.,0.11751
 ,0.\H,0,0.7578497316,-0.4701504329,0.\H,0,-0.8187867861,-0.4721248014,
 0.\\Version=ES64L-G16RevC.01\State=1-A'\HF=-76.4207149\RMSD=3.709e-09\
 Dipole=-0.0256884,-0.8186418,0.\Quadrupole=1.2799786,-0.2191665,-1.060
 8121,0.0221715,0.,0.\PG=CS [SG(H2O1)]\\@
 The archive entry for this job was punched.


 ERROR IS THE FORCE THAT WELDS MEN TOGETHER....
 TRUTH IS COMMUNICATED TO MEN ONLY BY DEEDS OF TRUTH.
           TOLSTOI,MY RELIGION
 Job cpu time:       0 days  0 hours  0 minutes  5.5 seconds.
 Elapsed time:       0 days  0 hours  0 minutes  2.2 seconds.
 File lengths (MBytes):  RWF=      6 Int=      0 D2E=      0 Chk=      1 Scr=      1
 Normal termination of Gaussian 16 at Wed Feb  8 14:41:48 2023.
