 Entering Gaussian System, Link 0=/opt/cluster/programs/g16-c.01/g16/g16
 Input=/scratch/boittier/jobs/tmp.7425395/gaussian_113_water_pbe0_dz.com
 Output=/scratch/boittier/jobs/tmp.7425395/gaussian_113_water_pbe0_dz.out
 Initial command:
 /opt/cluster/programs/g16-c.01/g16/l1.exe "/scratch/boittier/jobs/tmp.7425395/Gau-2850.inp" -scrdir="/scratch/boittier/jobs/tmp.7425395/"
 Entering Link 1 = /opt/cluster/programs/g16-c.01/g16/l1.exe PID=      2851.
  
 Copyright (c) 1988-2019, Gaussian, Inc.  All Rights Reserved.
  
 This is part of the Gaussian(R) 16 program.  It is based on
 the Gaussian(R) 09 system (copyright 2009, Gaussian, Inc.),
 the Gaussian(R) 03 system (copyright 2003, Gaussian, Inc.),
 the Gaussian(R) 98 system (copyright 1998, Gaussian, Inc.),
 the Gaussian(R) 94 system (copyright 1995, Gaussian, Inc.),
 the Gaussian 92(TM) system (copyright 1992, Gaussian, Inc.),
 the Gaussian 90(TM) system (copyright 1990, Gaussian, Inc.),
 the Gaussian 88(TM) system (copyright 1988, Gaussian, Inc.),
 the Gaussian 86(TM) system (copyright 1986, Carnegie Mellon
 University), and the Gaussian 82(TM) system (copyright 1983,
 Carnegie Mellon University). Gaussian is a federally registered
 trademark of Gaussian, Inc.
  
 This software contains proprietary and confidential information,
 including trade secrets, belonging to Gaussian, Inc.
  
 This software is provided under written license and may be
 used, copied, transmitted, or stored only in accord with that
 written license.
  
 The following legend is applicable only to US Government
 contracts under FAR:
  
                    RESTRICTED RIGHTS LEGEND
  
 Use, reproduction and disclosure by the US Government is
 subject to restrictions as set forth in subparagraphs (a)
 and (c) of the Commercial Computer Software - Restricted
 Rights clause in FAR 52.227-19.
  
 Gaussian, Inc.
 340 Quinnipiac St., Bldg. 40, Wallingford CT 06492
  
  
 ---------------------------------------------------------------
 Warning -- This program may not be used in any manner that
 competes with the business of Gaussian, Inc. or will provide
 assistance to any competitor of Gaussian, Inc.  The licensee
 of this program is prohibited from giving any competitor of
 Gaussian, Inc. access to this program.  By using this program,
 the user acknowledges that Gaussian, Inc. is engaged in the
 business of creating and licensing software in the field of
 computational chemistry and represents and warrants to the
 licensee that it is not a competitor of Gaussian, Inc. and that
 it will not use this program in any manner prohibited above.
 ---------------------------------------------------------------
  

 Cite this work as:
 Gaussian 16, Revision C.01,
 M. J. Frisch, G. W. Trucks, H. B. Schlegel, G. E. Scuseria, 
 M. A. Robb, J. R. Cheeseman, G. Scalmani, V. Barone, 
 G. A. Petersson, H. Nakatsuji, X. Li, M. Caricato, A. V. Marenich, 
 J. Bloino, B. G. Janesko, R. Gomperts, B. Mennucci, H. P. Hratchian, 
 J. V. Ortiz, A. F. Izmaylov, J. L. Sonnenberg, D. Williams-Young, 
 F. Ding, F. Lipparini, F. Egidi, J. Goings, B. Peng, A. Petrone, 
 T. Henderson, D. Ranasinghe, V. G. Zakrzewski, J. Gao, N. Rega, 
 G. Zheng, W. Liang, M. Hada, M. Ehara, K. Toyota, R. Fukuda, 
 J. Hasegawa, M. Ishida, T. Nakajima, Y. Honda, O. Kitao, H. Nakai, 
 T. Vreven, K. Throssell, J. A. Montgomery, Jr., J. E. Peralta, 
 F. Ogliaro, M. J. Bearpark, J. J. Heyd, E. N. Brothers, K. N. Kudin, 
 V. N. Staroverov, T. A. Keith, R. Kobayashi, J. Normand, 
 K. Raghavachari, A. P. Rendell, J. C. Burant, S. S. Iyengar, 
 J. Tomasi, M. Cossi, J. M. Millam, M. Klene, C. Adamo, R. Cammi, 
 J. W. Ochterski, R. L. Martin, K. Morokuma, O. Farkas, 
 J. B. Foresman, and D. J. Fox, Gaussian, Inc., Wallingford CT, 2019.
 
 ******************************************
 Gaussian 16:  ES64L-G16RevC.01  3-Jul-2019
                20-Mar-2023 
 ******************************************
 %nproc=4
 Will use up to    4 processors via shared memory.
 %mem=5760MB
 %chk=gaussian_113_water_pbe0_dz.chk
 ----------------------------------------
 #P PBE1PBE/aug-cc-pVDZ scf(maxcycle=200)
 ----------------------------------------
 1/38=1,172=1/1;
 2/12=2,17=6,18=5,40=1/2;
 3/5=16,7=10,11=2,25=1,30=1,74=-13/1,2,3;
 4//1;
 5/5=2,7=200,38=5/2;
 6/7=2,8=2,9=2,10=2,28=1/1;
 99/5=1,9=1/99;
 Leave Link    1 at Mon Mar 20 17:34:48 2023, MaxMem=   754974720 cpu:               0.1 elap:               0.1
 (Enter /opt/cluster/programs/g16-c.01/g16/l101.exe)
 --------------
 Gaussian input
 --------------
 Symbolic Z-matrix:
 Charge =  0 Multiplicity = 1
 O                     0.        0.11751   0. 
 H                     0.75785  -0.47015   0. 
 H                    -0.85792  -0.41357   0. 
 
 ITRead=  0  0  0
 MicOpt= -1 -1 -1
 NAtoms=      3 NQM=        3 NQMF=       0 NMMI=      0 NMMIF=      0
                NMic=       0 NMicF=      0.
                    Isotopes and Nuclear Properties:
 (Nuclear quadrupole moments (NQMom) in fm**2, nuclear magnetic moments (NMagM)
  in nuclear magnetons)

  Atom         1           2           3
 IAtWgt=          16           1           1
 AtmWgt=  15.9949146   1.0078250   1.0078250
 NucSpn=           0           1           1
 AtZEff=  -0.0000000  -0.0000000  -0.0000000
 NQMom=    0.0000000   0.0000000   0.0000000
 NMagM=    0.0000000   2.7928460   2.7928460
 AtZNuc=   8.0000000   1.0000000   1.0000000
 Leave Link  101 at Mon Mar 20 17:34:48 2023, MaxMem=   754974720 cpu:               0.4 elap:               0.2
 (Enter /opt/cluster/programs/g16-c.01/g16/l202.exe)
                          Input orientation:                          
 ---------------------------------------------------------------------
 Center     Atomic      Atomic             Coordinates (Angstroms)
 Number     Number       Type             X           Y           Z
 ---------------------------------------------------------------------
      1          8           0        0.000000    0.117510    0.000000
      2          1           0        0.757850   -0.470150    0.000000
      3          1           0       -0.857923   -0.413573    0.000000
 ---------------------------------------------------------------------
                    Distance matrix (angstroms):
                    1          2          3
     1  O    0.000000
     2  H    0.959000   0.000000
     3  H    1.009000   1.616763   0.000000
 Stoichiometry    H2O
 Framework group  CS[SG(H2O)]
 Deg. of freedom     3
 Full point group                 CS      NOp   2
 Largest Abelian subgroup         CS      NOp   2
 Largest concise Abelian subgroup C1      NOp   1
                         Standard orientation:                         
 ---------------------------------------------------------------------
 Center     Atomic      Atomic             Coordinates (Angstroms)
 Number     Number       Type             X           Y           Z
 ---------------------------------------------------------------------
      1          8           0        0.000000    0.112321    0.000000
      2          1           0        0.807194   -0.405481    0.000000
      3          1           0       -0.807194   -0.493087    0.000000
 ---------------------------------------------------------------------
 Rotational constants (GHZ):         899.7343580         382.8400728         268.5648169
 Leave Link  202 at Mon Mar 20 17:34:48 2023, MaxMem=   754974720 cpu:               0.0 elap:               0.0
 (Enter /opt/cluster/programs/g16-c.01/g16/l301.exe)
 Standard basis: Aug-CC-pVDZ (5D, 7F)
 Ernie: Thresh=  0.10000D-02 Tol=  0.10000D-05 Strict=F.
 Ernie:  2 primitive shells out of 39 were deleted.
 There are    32 symmetry adapted cartesian basis functions of A'  symmetry.
 There are    11 symmetry adapted cartesian basis functions of A"  symmetry.
 There are    30 symmetry adapted basis functions of A'  symmetry.
 There are    11 symmetry adapted basis functions of A"  symmetry.
    41 basis functions,    65 primitive gaussians,    43 cartesian basis functions
     5 alpha electrons        5 beta electrons
       nuclear repulsion energy         8.9373717973 Hartrees.
 IExCor= 1009 DFT=T Ex+Corr=PBE1PBE ExCW=0 ScaHFX=  0.250000
 ScaDFX=  0.750000  0.750000  1.000000  1.000000 ScalE2=  1.000000  1.000000
 IRadAn=      5 IRanWt=     -1 IRanGd=            0 ICorTp=0 IEmpDi=  4
 NAtoms=    3 NActive=    3 NUniq=    3 SFac= 1.00D+00 NAtFMM=   60 NAOKFM=F Big=F
 Integral buffers will be    131072 words long.
 Raffenetti 2 integral format.
 Two-electron integral symmetry is turned on.
 Leave Link  301 at Mon Mar 20 17:34:48 2023, MaxMem=   754974720 cpu:               0.2 elap:               0.0
 (Enter /opt/cluster/programs/g16-c.01/g16/l302.exe)
 NPDir=0 NMtPBC=     1 NCelOv=     1 NCel=       1 NClECP=     1 NCelD=      1
         NCelK=      1 NCelE2=     1 NClLst=     1 CellRange=     0.0.
 One-electron integrals computed using PRISM.
 One-electron integral symmetry used in STVInt
 NBasis=    41 RedAO= T EigKep=  3.00D-03  NBF=    30    11
 NBsUse=    41 1.00D-06 EigRej= -1.00D+00 NBFU=    30    11
 Precomputing XC quadrature grid using
 IXCGrd= 4 IRadAn=           5 IRanWt=          -1 IRanGd=           0 AccXCQ= 0.00D+00.
 Generated NRdTot=       0 NPtTot=           0 NUsed=           0 NTot=          32
 NSgBfM=    43    43    43    43    43 MxSgAt=     3 MxSgA2=     3.
 Leave Link  302 at Mon Mar 20 17:34:48 2023, MaxMem=   754974720 cpu:               1.3 elap:               0.5
 (Enter /opt/cluster/programs/g16-c.01/g16/l303.exe)
 DipDrv:  MaxL=1.
 Leave Link  303 at Mon Mar 20 17:34:48 2023, MaxMem=   754974720 cpu:               0.1 elap:               0.0
 (Enter /opt/cluster/programs/g16-c.01/g16/l401.exe)
 ExpMin= 2.97D-02 ExpMax= 1.17D+04 ExpMxC= 4.01D+02 IAcc=3 IRadAn=         5 AccDes= 0.00D+00
 Harris functional with IExCor= 1009 and IRadAn=       5 diagonalized for initial guess.
 HarFok:  IExCor= 1009 AccDes= 0.00D+00 IRadAn=         5 IDoV= 1 UseB2=F ITyADJ=14
 ICtDFT=  3500011 ScaDFX=  1.000000  1.000000  1.000000  1.000000
 FoFCou: FMM=F IPFlag=           0 FMFlag=      100000 FMFlg1=           0
         NFxFlg=           0 DoJE=T BraDBF=F KetDBF=T FulRan=T
         wScrn=  0.000000 ICntrl=       500 IOpCl=  0 I1Cent=   200000004 NGrid=           0
         NMat0=    1 NMatS0=      1 NMatT0=    0 NMatD0=    1 NMtDS0=    0 NMtDT0=    0
 Petite list used in FoFCou.
 Harris En= -76.3952927296661    
 JPrj=0 DoOrth=F DoCkMO=F.
 Initial guess orbital symmetries:
       Occupied  (A') (A') (A') (A') (A")
       Virtual   (A') (A') (A') (A") (A') (A') (A') (A') (A") (A')
                 (A") (A') (A') (A') (A') (A') (A") (A') (A") (A')
                 (A") (A') (A') (A') (A") (A") (A') (A') (A') (A')
                 (A') (A") (A') (A") (A') (A')
 The electronic state of the initial guess is 1-A'.
 Leave Link  401 at Mon Mar 20 17:34:49 2023, MaxMem=   754974720 cpu:               0.8 elap:               0.2
 (Enter /opt/cluster/programs/g16-c.01/g16/l502.exe)
 Keep R1 ints in memory in symmetry-blocked form, NReq=3831793.
 FoFCou: FMM=F IPFlag=           0 FMFlag=           0 FMFlg1=           0
         NFxFlg=           0 DoJE=F BraDBF=F KetDBF=F FulRan=T
         wScrn=  0.000000 ICntrl=       600 IOpCl=  0 I1Cent=           0 NGrid=           0
         NMat0=    1 NMatS0=    861 NMatT0=    0 NMatD0=    1 NMtDS0=    0 NMtDT0=    0
 Petite list used in FoFCou.
 Closed shell SCF:
 Using DIIS extrapolation, IDIIS=  1040.
 NGot=   754974720 LenX=   754771907 LenY=   754769617
 Requested convergence on RMS density matrix=1.00D-08 within 200 cycles.
 Requested convergence on MAX density matrix=1.00D-06.
 Requested convergence on             energy=1.00D-06.
 No special actions if energy rises.

 Cycle   1  Pass 1  IDiag  1:
 E= -76.2905907394392    
 DIIS: error= 5.22D-02 at cycle   1 NSaved=   1.
 NSaved= 1 IEnMin= 1 EnMin= -76.2905907394392     IErMin= 1 ErrMin= 5.22D-02
 ErrMax= 5.22D-02  0.00D+00 EMaxC= 1.00D-01 BMatC= 8.57D-02 BMatP= 8.57D-02
 IDIUse=3 WtCom= 4.78D-01 WtEn= 5.22D-01
 Coeff-Com:  0.100D+01
 Coeff-En:   0.100D+01
 Coeff:      0.100D+01
 Gap=     0.174 Goal=   None    Shift=    0.000
 GapD=    0.174 DampG=1.000 DampE=0.500 DampFc=0.5000 IDamp=-1.
 Damping current iteration by 5.00D-01
 RMSDP=9.97D-03 MaxDP=1.60D-01              OVMax= 2.01D-01

 Cycle   2  Pass 1  IDiag  1:
 E= -76.3057437238097     Delta-E=       -0.015152984371 Rises=F Damp=T
 DIIS: error= 1.86D-02 at cycle   2 NSaved=   2.
 NSaved= 2 IEnMin= 2 EnMin= -76.3057437238097     IErMin= 2 ErrMin= 1.86D-02
 ErrMax= 1.86D-02  0.00D+00 EMaxC= 1.00D-01 BMatC= 9.08D-03 BMatP= 8.57D-02
 IDIUse=3 WtCom= 8.14D-01 WtEn= 1.86D-01
 Coeff-Com:  0.234D+00 0.766D+00
 Coeff-En:   0.389D+00 0.611D+00
 Coeff:      0.263D+00 0.737D+00
 Gap=     0.305 Goal=   None    Shift=    0.000
 RMSDP=1.25D-03 MaxDP=1.70D-02 DE=-1.52D-02 OVMax= 1.28D-01

 Cycle   3  Pass 1  IDiag  1:
 E= -76.3567915710099     Delta-E=       -0.051047847200 Rises=F Damp=F
 DIIS: error= 1.68D-03 at cycle   3 NSaved=   3.
 NSaved= 3 IEnMin= 3 EnMin= -76.3567915710099     IErMin= 3 ErrMin= 1.68D-03
 ErrMax= 1.68D-03  0.00D+00 EMaxC= 1.00D-01 BMatC= 1.02D-04 BMatP= 9.08D-03
 IDIUse=3 WtCom= 9.83D-01 WtEn= 1.68D-02
 Coeff-Com:  0.266D-01-0.140D-01 0.987D+00
 Coeff-En:   0.000D+00 0.000D+00 0.100D+01
 Coeff:      0.262D-01-0.138D-01 0.988D+00
 Gap=     0.315 Goal=   None    Shift=    0.000
 RMSDP=1.55D-04 MaxDP=1.81D-03 DE=-5.10D-02 OVMax= 2.26D-03

 Cycle   4  Pass 1  IDiag  1:
 E= -76.3568591547352     Delta-E=       -0.000067583725 Rises=F Damp=F
 DIIS: error= 2.88D-04 at cycle   4 NSaved=   4.
 NSaved= 4 IEnMin= 4 EnMin= -76.3568591547352     IErMin= 4 ErrMin= 2.88D-04
 ErrMax= 2.88D-04  0.00D+00 EMaxC= 1.00D-01 BMatC= 3.93D-06 BMatP= 1.02D-04
 IDIUse=3 WtCom= 9.97D-01 WtEn= 2.88D-03
 Coeff-Com:  0.483D-02-0.190D-01 0.237D+00 0.777D+00
 Coeff-En:   0.000D+00 0.000D+00 0.000D+00 0.100D+01
 Coeff:      0.482D-02-0.189D-01 0.237D+00 0.778D+00
 Gap=     0.316 Goal=   None    Shift=    0.000
 RMSDP=2.04D-05 MaxDP=2.82D-04 DE=-6.76D-05 OVMax= 4.63D-04

 Cycle   5  Pass 1  IDiag  1:
 E= -76.3568616979686     Delta-E=       -0.000002543233 Rises=F Damp=F
 DIIS: error= 1.03D-04 at cycle   5 NSaved=   5.
 NSaved= 5 IEnMin= 5 EnMin= -76.3568616979686     IErMin= 5 ErrMin= 1.03D-04
 ErrMax= 1.03D-04  0.00D+00 EMaxC= 1.00D-01 BMatC= 2.58D-07 BMatP= 3.93D-06
 IDIUse=3 WtCom= 9.99D-01 WtEn= 1.03D-03
 Coeff-Com:  0.127D-02-0.209D-02 0.371D-02 0.277D-01 0.969D+00
 Coeff-En:   0.000D+00 0.000D+00 0.000D+00 0.000D+00 0.100D+01
 Coeff:      0.127D-02-0.209D-02 0.370D-02 0.276D-01 0.969D+00
 Gap=     0.316 Goal=   None    Shift=    0.000
 RMSDP=6.89D-06 MaxDP=1.14D-04 DE=-2.54D-06 OVMax= 1.49D-04

 Cycle   6  Pass 1  IDiag  1:
 E= -76.3568618986039     Delta-E=       -0.000000200635 Rises=F Damp=F
 DIIS: error= 5.52D-06 at cycle   6 NSaved=   6.
 NSaved= 6 IEnMin= 6 EnMin= -76.3568618986039     IErMin= 6 ErrMin= 5.52D-06
 ErrMax= 5.52D-06  0.00D+00 EMaxC= 1.00D-01 BMatC= 7.26D-10 BMatP= 2.58D-07
 IDIUse=1 WtCom= 1.00D+00 WtEn= 0.00D+00
 Coeff-Com:  0.133D-03-0.199D-03-0.281D-03-0.232D-02 0.806D-01 0.922D+00
 Coeff:      0.133D-03-0.199D-03-0.281D-03-0.232D-02 0.806D-01 0.922D+00
 Gap=     0.316 Goal=   None    Shift=    0.000
 RMSDP=5.18D-07 MaxDP=6.88D-06 DE=-2.01D-07 OVMax= 9.90D-06

 Cycle   7  Pass 1  IDiag  1:
 E= -76.3568618992092     Delta-E=       -0.000000000605 Rises=F Damp=F
 DIIS: error= 8.17D-07 at cycle   7 NSaved=   7.
 NSaved= 7 IEnMin= 7 EnMin= -76.3568618992092     IErMin= 7 ErrMin= 8.17D-07
 ErrMax= 8.17D-07  0.00D+00 EMaxC= 1.00D-01 BMatC= 2.90D-11 BMatP= 7.26D-10
 IDIUse=1 WtCom= 1.00D+00 WtEn= 0.00D+00
 Coeff-Com: -0.332D-04 0.511D-04-0.195D-03-0.208D-02-0.332D-01 0.239D+00
 Coeff-Com:  0.797D+00
 Coeff:     -0.332D-04 0.511D-04-0.195D-03-0.208D-02-0.332D-01 0.239D+00
 Coeff:      0.797D+00
 Gap=     0.316 Goal=   None    Shift=    0.000
 RMSDP=1.06D-07 MaxDP=1.17D-06 DE=-6.05D-10 OVMax= 2.02D-06

 Cycle   8  Pass 1  IDiag  1:
 E= -76.3568618992359     Delta-E=       -0.000000000027 Rises=F Damp=F
 DIIS: error= 1.05D-07 at cycle   8 NSaved=   8.
 NSaved= 8 IEnMin= 8 EnMin= -76.3568618992359     IErMin= 8 ErrMin= 1.05D-07
 ErrMax= 1.05D-07  0.00D+00 EMaxC= 1.00D-01 BMatC= 3.52D-13 BMatP= 2.90D-11
 IDIUse=1 WtCom= 1.00D+00 WtEn= 0.00D+00
 Coeff-Com: -0.868D-06 0.156D-05-0.909D-05 0.117D-03 0.156D-02-0.229D-01
 Coeff-Com: -0.591D-01 0.108D+01
 Coeff:     -0.868D-06 0.156D-05-0.909D-05 0.117D-03 0.156D-02-0.229D-01
 Coeff:     -0.591D-01 0.108D+01
 Gap=     0.316 Goal=   None    Shift=    0.000
 RMSDP=1.19D-08 MaxDP=2.35D-07 DE=-2.67D-11 OVMax= 4.13D-07

 Cycle   9  Pass 1  IDiag  1:
 E= -76.3568618992363     Delta-E=       -0.000000000000 Rises=F Damp=F
 DIIS: error= 4.48D-09 at cycle   9 NSaved=   9.
 NSaved= 9 IEnMin= 9 EnMin= -76.3568618992363     IErMin= 9 ErrMin= 4.48D-09
 ErrMax= 4.48D-09  0.00D+00 EMaxC= 1.00D-01 BMatC= 3.71D-16 BMatP= 3.52D-13
 IDIUse=1 WtCom= 1.00D+00 WtEn= 0.00D+00
 Coeff-Com:  0.258D-06-0.358D-06 0.117D-05 0.603D-05 0.192D-03-0.714D-03
 Coeff-Com: -0.266D-02-0.470D-01 0.105D+01
 Coeff:      0.258D-06-0.358D-06 0.117D-05 0.603D-05 0.192D-03-0.714D-03
 Coeff:     -0.266D-02-0.470D-01 0.105D+01
 Gap=     0.316 Goal=   None    Shift=    0.000
 RMSDP=7.47D-10 MaxDP=1.34D-08 DE=-3.98D-13 OVMax= 2.28D-08

 SCF Done:  E(RPBE1PBE) =  -76.3568618992     A.U. after    9 cycles
            NFock=  9  Conv=0.75D-09     -V/T= 2.0067
 KE= 7.584964482134D+01 PE=-1.983611422305D+02 EE= 3.721726371253D+01
 Leave Link  502 at Mon Mar 20 17:34:49 2023, MaxMem=   754974720 cpu:               2.3 elap:               0.6
 (Enter /opt/cluster/programs/g16-c.01/g16/l601.exe)
 Copying SCF densities to generalized density rwf, IOpCl= 0 IROHF=0.

 **********************************************************************

            Population analysis using the SCF Density.

 **********************************************************************

 Orbital symmetries:
       Occupied  (A') (A') (A') (A') (A")
       Virtual   (A') (A') (A') (A") (A') (A') (A') (A') (A") (A')
                 (A") (A') (A') (A') (A') (A') (A") (A') (A") (A')
                 (A") (A') (A') (A') (A") (A") (A') (A') (A') (A')
                 (A') (A") (A') (A") (A') (A')
 The electronic state is 1-A'.
 Alpha  occ. eigenvalues --  -19.23175  -1.03406  -0.55220  -0.39779  -0.32984
 Alpha virt. eigenvalues --   -0.01383   0.03087   0.11152   0.13185   0.13761
 Alpha virt. eigenvalues --    0.16048   0.19166   0.22772   0.28552   0.31273
 Alpha virt. eigenvalues --    0.33967   0.44243   0.50687   0.53425   0.64859
 Alpha virt. eigenvalues --    0.73008   0.91368   0.92160   0.96211   1.10981
 Alpha virt. eigenvalues --    1.21528   1.23720   1.32364   1.72579   1.77229
 Alpha virt. eigenvalues --    1.82950   2.09324   2.16380   2.26888   2.43425
 Alpha virt. eigenvalues --    2.61817   3.29787   3.30785   3.32897   3.64785
 Alpha virt. eigenvalues --    3.85147
          Condensed to atoms (all electrons):
               1          2          3
     1  O    7.657515   0.323061   0.309192
     2  H    0.323061   0.615436  -0.056565
     3  H    0.309192  -0.056565   0.575670
 Mulliken charges:
               1
     1  O   -0.289769
     2  H    0.118067
     3  H    0.171702
 Sum of Mulliken charges =  -0.00000
 Mulliken charges with hydrogens summed into heavy atoms:
               1
     1  O   -0.000000
 Electronic spatial extent (au):  <R**2>=             20.3046
 Charge=             -0.0000 electrons
 Dipole moment (field-independent basis, Debye):
    X=              0.0199    Y=             -1.7870    Z=              0.0000  Tot=              1.7871
 Quadrupole moment (field-independent basis, Debye-Ang):
   XX=             -4.1651   YY=             -6.6214   ZZ=             -7.8224
   XY=              0.1596   XZ=              0.0000   YZ=              0.0000
 Traceless Quadrupole moment (field-independent basis, Debye-Ang):
   XX=              2.0379   YY=             -0.4185   ZZ=             -1.6194
   XY=              0.1596   XZ=              0.0000   YZ=              0.0000
 Octapole moment (field-independent basis, Debye-Ang**2):
  XXX=              0.0628  YYY=             -0.8863  ZZZ=              0.0000  XYY=             -0.0998
  XXY=             -1.3574  XXZ=              0.0000  XZZ=              0.0290  YZZ=             -0.2080
  YYZ=              0.0000  XYZ=              0.0000
 Hexadecapole moment (field-independent basis, Debye-Ang**3):
 XXXX=             -6.6266 YYYY=             -8.2226 ZZZZ=             -7.7908 XXXY=              0.0220
 XXXZ=              0.0000 YYYX=             -0.0110 YYYZ=              0.0000 ZZZX=              0.0000
 ZZZY=              0.0000 XXYY=             -2.2550 XXZZ=             -2.8148 YYZZ=             -2.7115
 XXYZ=              0.0000 YYXZ=              0.0000 ZZXY=             -0.0384
 N-N= 8.937371797347D+00 E-N=-1.983611421108D+02  KE= 7.584964482134D+01
 Symmetry A'   KE= 7.141481347461D+01
 Symmetry A"   KE= 4.434831346738D+00
 No NMR shielding tensors so no spin-rotation constants.
 Leave Link  601 at Mon Mar 20 17:34:50 2023, MaxMem=   754974720 cpu:               0.9 elap:               0.3
 (Enter /opt/cluster/programs/g16-c.01/g16/l9999.exe)
 Unable to Open any file for archive entry.
 1\1\GINC-NODE59\SP\RPBE1PBE\Aug-CC-pVDZ\H2O1\BOITTIER\20-Mar-2023\0\\#
 P PBE1PBE/aug-cc-pVDZ scf(maxcycle=200)\\Gaussian input\\0,1\O,0,0.,0.
 11751,0.\H,0,0.7578497316,-0.4701504329,0.\H,0,-0.8579231071,-0.413572
 8017,0.\\Version=ES64L-G16RevC.01\State=1-A'\HF=-76.3568619\RMSD=7.470
 e-10\Dipole=-0.0548329,-0.7009576,0.\Quadrupole=1.5216502,-0.317666,-1
 .2039842,-0.0453158,0.,0.\PG=CS [SG(H2O1)]\\@
 The archive entry for this job was punched.


 MUD THROWN IS GROUND LOST -- FROM A TEA BAG
 Job cpu time:       0 days  0 hours  0 minutes  6.3 seconds.
 Elapsed time:       0 days  0 hours  0 minutes  1.9 seconds.
 File lengths (MBytes):  RWF=      6 Int=      0 D2E=      0 Chk=      1 Scr=      1
 Normal termination of Gaussian 16 at Mon Mar 20 17:34:50 2023.
