 Entering Gaussian System, Link 0=/opt/cluster/programs/g16-c.01/g16/g16
 Input=/scratch/boittier/jobs/tmp.7311882/gaussian_54_water_hf_adz2.com
 Output=/scratch/boittier/jobs/tmp.7311882/gaussian_54_water_hf_adz2.out
 Initial command:
 /opt/cluster/programs/g16-c.01/g16/l1.exe "/scratch/boittier/jobs/tmp.7311882/Gau-180475.inp" -scrdir="/scratch/boittier/jobs/tmp.7311882/"
 Entering Link 1 = /opt/cluster/programs/g16-c.01/g16/l1.exe PID=    180476.
  
 Copyright (c) 1988-2019, Gaussian, Inc.  All Rights Reserved.
  
 This is part of the Gaussian(R) 16 program.  It is based on
 the Gaussian(R) 09 system (copyright 2009, Gaussian, Inc.),
 the Gaussian(R) 03 system (copyright 2003, Gaussian, Inc.),
 the Gaussian(R) 98 system (copyright 1998, Gaussian, Inc.),
 the Gaussian(R) 94 system (copyright 1995, Gaussian, Inc.),
 the Gaussian 92(TM) system (copyright 1992, Gaussian, Inc.),
 the Gaussian 90(TM) system (copyright 1990, Gaussian, Inc.),
 the Gaussian 88(TM) system (copyright 1988, Gaussian, Inc.),
 the Gaussian 86(TM) system (copyright 1986, Carnegie Mellon
 University), and the Gaussian 82(TM) system (copyright 1983,
 Carnegie Mellon University). Gaussian is a federally registered
 trademark of Gaussian, Inc.
  
 This software contains proprietary and confidential information,
 including trade secrets, belonging to Gaussian, Inc.
  
 This software is provided under written license and may be
 used, copied, transmitted, or stored only in accord with that
 written license.
  
 The following legend is applicable only to US Government
 contracts under FAR:
  
                    RESTRICTED RIGHTS LEGEND
  
 Use, reproduction and disclosure by the US Government is
 subject to restrictions as set forth in subparagraphs (a)
 and (c) of the Commercial Computer Software - Restricted
 Rights clause in FAR 52.227-19.
  
 Gaussian, Inc.
 340 Quinnipiac St., Bldg. 40, Wallingford CT 06492
  
  
 ---------------------------------------------------------------
 Warning -- This program may not be used in any manner that
 competes with the business of Gaussian, Inc. or will provide
 assistance to any competitor of Gaussian, Inc.  The licensee
 of this program is prohibited from giving any competitor of
 Gaussian, Inc. access to this program.  By using this program,
 the user acknowledges that Gaussian, Inc. is engaged in the
 business of creating and licensing software in the field of
 computational chemistry and represents and warrants to the
 licensee that it is not a competitor of Gaussian, Inc. and that
 it will not use this program in any manner prohibited above.
 ---------------------------------------------------------------
  

 Cite this work as:
 Gaussian 16, Revision C.01,
 M. J. Frisch, G. W. Trucks, H. B. Schlegel, G. E. Scuseria, 
 M. A. Robb, J. R. Cheeseman, G. Scalmani, V. Barone, 
 G. A. Petersson, H. Nakatsuji, X. Li, M. Caricato, A. V. Marenich, 
 J. Bloino, B. G. Janesko, R. Gomperts, B. Mennucci, H. P. Hratchian, 
 J. V. Ortiz, A. F. Izmaylov, J. L. Sonnenberg, D. Williams-Young, 
 F. Ding, F. Lipparini, F. Egidi, J. Goings, B. Peng, A. Petrone, 
 T. Henderson, D. Ranasinghe, V. G. Zakrzewski, J. Gao, N. Rega, 
 G. Zheng, W. Liang, M. Hada, M. Ehara, K. Toyota, R. Fukuda, 
 J. Hasegawa, M. Ishida, T. Nakajima, Y. Honda, O. Kitao, H. Nakai, 
 T. Vreven, K. Throssell, J. A. Montgomery, Jr., J. E. Peralta, 
 F. Ogliaro, M. J. Bearpark, J. J. Heyd, E. N. Brothers, K. N. Kudin, 
 V. N. Staroverov, T. A. Keith, R. Kobayashi, J. Normand, 
 K. Raghavachari, A. P. Rendell, J. C. Burant, S. S. Iyengar, 
 J. Tomasi, M. Cossi, J. M. Millam, M. Klene, C. Adamo, R. Cammi, 
 J. W. Ochterski, R. L. Martin, K. Morokuma, O. Farkas, 
 J. B. Foresman, and D. J. Fox, Gaussian, Inc., Wallingford CT, 2019.
 
 ******************************************
 Gaussian 16:  ES64L-G16RevC.01  3-Jul-2019
                20-Feb-2023 
 ******************************************
 %nproc=4
 Will use up to    4 processors via shared memory.
 %mem=5760MB
 %chk=gaussian_54_water_hf_adz2.chk
 -----------------------------------
 #P HF/aug-cc-pVDZ scf(maxcycle=200)
 -----------------------------------
 1/38=1,172=1/1;
 2/12=2,17=6,18=5,40=1/2;
 3/5=16,7=10,11=9,25=1,30=1/1,2,3;
 4//1;
 5/5=2,7=200,38=5/2;
 6/7=2,8=2,9=2,10=2,28=1/1;
 99/5=1,9=1/99;
 Leave Link    1 at Mon Feb 20 10:15:25 2023, MaxMem=   754974720 cpu:               0.2 elap:               0.1
 (Enter /opt/cluster/programs/g16-c.01/g16/l101.exe)
 --------------
 Gaussian input
 --------------
 Symbolic Z-matrix:
 Charge =  0 Multiplicity = 1
 O                     0.        0.11751   0. 
 H                     0.71834  -0.43951   0. 
 H                    -0.87594  -0.38331   0. 
 
 ITRead=  0  0  0
 MicOpt= -1 -1 -1
 NAtoms=      3 NQM=        3 NQMF=       0 NMMI=      0 NMMIF=      0
                NMic=       0 NMicF=      0.
                    Isotopes and Nuclear Properties:
 (Nuclear quadrupole moments (NQMom) in fm**2, nuclear magnetic moments (NMagM)
  in nuclear magnetons)

  Atom         1           2           3
 IAtWgt=          16           1           1
 AtmWgt=  15.9949146   1.0078250   1.0078250
 NucSpn=           0           1           1
 AtZEff=  -0.0000000  -0.0000000  -0.0000000
 NQMom=    0.0000000   0.0000000   0.0000000
 NMagM=    0.0000000   2.7928460   2.7928460
 AtZNuc=   8.0000000   1.0000000   1.0000000
 Leave Link  101 at Mon Feb 20 10:15:26 2023, MaxMem=   754974720 cpu:               1.1 elap:               0.5
 (Enter /opt/cluster/programs/g16-c.01/g16/l202.exe)
                          Input orientation:                          
 ---------------------------------------------------------------------
 Center     Atomic      Atomic             Coordinates (Angstroms)
 Number     Number       Type             X           Y           Z
 ---------------------------------------------------------------------
      1          8           0        0.000000    0.117510    0.000000
      2          1           0        0.718337   -0.439511    0.000000
      3          1           0       -0.875935   -0.383308    0.000000
 ---------------------------------------------------------------------
                    Distance matrix (angstroms):
                    1          2          3
     1  O    0.000000
     2  H    0.909000   0.000000
     3  H    1.009000   1.595263   0.000000
 Stoichiometry    H2O
 Framework group  CS[SG(H2O)]
 Deg. of freedom     3
 Full point group                 CS      NOp   2
 Largest Abelian subgroup         CS      NOp   2
 Largest concise Abelian subgroup C1      NOp   1
                         Standard orientation:                         
 ---------------------------------------------------------------------
 Center     Atomic      Atomic             Coordinates (Angstroms)
 Number     Number       Type             X           Y           Z
 ---------------------------------------------------------------------
      1          8           0        0.000000    0.106951    0.000000
      2          1           0        0.792575   -0.338139    0.000000
      3          1           0       -0.792575   -0.517473    0.000000
 ---------------------------------------------------------------------
 Rotational constants (GHZ):        1008.1831299         390.8550419         281.6602630
 Leave Link  202 at Mon Feb 20 10:15:26 2023, MaxMem=   754974720 cpu:               0.1 elap:               0.0
 (Enter /opt/cluster/programs/g16-c.01/g16/l301.exe)
 Standard basis: Aug-CC-pVDZ (5D, 7F)
 Ernie: Thresh=  0.10000D-02 Tol=  0.10000D-05 Strict=F.
 Ernie:  2 primitive shells out of 39 were deleted.
 There are    32 symmetry adapted cartesian basis functions of A'  symmetry.
 There are    11 symmetry adapted cartesian basis functions of A"  symmetry.
 There are    30 symmetry adapted basis functions of A'  symmetry.
 There are    11 symmetry adapted basis functions of A"  symmetry.
    41 basis functions,    65 primitive gaussians,    43 cartesian basis functions
     5 alpha electrons        5 beta electrons
       nuclear repulsion energy         9.1845998881 Hartrees.
 IExCor=    0 DFT=F Ex=HF Corr=None ExCW=0 ScaHFX=  1.000000
 ScaDFX=  1.000000  1.000000  1.000000  1.000000 ScalE2=  1.000000  1.000000
 IRadAn=      5 IRanWt=     -1 IRanGd=            0 ICorTp=0 IEmpDi=  4
 NAtoms=    3 NActive=    3 NUniq=    3 SFac= 1.00D+00 NAtFMM=   60 NAOKFM=F Big=F
 Integral buffers will be    131072 words long.
 Raffenetti 1 integral format.
 Two-electron integral symmetry is turned on.
 Leave Link  301 at Mon Feb 20 10:15:26 2023, MaxMem=   754974720 cpu:               0.3 elap:               0.2
 (Enter /opt/cluster/programs/g16-c.01/g16/l302.exe)
 NPDir=0 NMtPBC=     1 NCelOv=     1 NCel=       1 NClECP=     1 NCelD=      1
         NCelK=      1 NCelE2=     1 NClLst=     1 CellRange=     0.0.
 One-electron integrals computed using PRISM.
 One-electron integral symmetry used in STVInt
 NBasis=    41 RedAO= T EigKep=  2.71D-03  NBF=    30    11
 NBsUse=    41 1.00D-06 EigRej= -1.00D+00 NBFU=    30    11
 Leave Link  302 at Mon Feb 20 10:15:27 2023, MaxMem=   754974720 cpu:               1.0 elap:               0.5
 (Enter /opt/cluster/programs/g16-c.01/g16/l303.exe)
 DipDrv:  MaxL=1.
 Leave Link  303 at Mon Feb 20 10:15:27 2023, MaxMem=   754974720 cpu:               0.4 elap:               0.2
 (Enter /opt/cluster/programs/g16-c.01/g16/l401.exe)
 ExpMin= 2.97D-02 ExpMax= 1.17D+04 ExpMxC= 4.01D+02 IAcc=3 IRadAn=         5 AccDes= 0.00D+00
 Harris functional with IExCor=  205 and IRadAn=       5 diagonalized for initial guess.
 HarFok:  IExCor=  205 AccDes= 0.00D+00 IRadAn=         5 IDoV= 1 UseB2=F ITyADJ=14
 ICtDFT=  3500011 ScaDFX=  1.000000  1.000000  1.000000  1.000000
 FoFCou: FMM=F IPFlag=           0 FMFlag=      100000 FMFlg1=           0
         NFxFlg=           0 DoJE=T BraDBF=F KetDBF=T FulRan=T
         wScrn=  0.000000 ICntrl=       500 IOpCl=  0 I1Cent=   200000004 NGrid=           0
         NMat0=    1 NMatS0=      1 NMatT0=    0 NMatD0=    1 NMtDS0=    0 NMtDT0=    0
 Petite list used in FoFCou.
 Harris En= -76.1210515055583    
 JPrj=0 DoOrth=F DoCkMO=F.
 Initial guess orbital symmetries:
       Occupied  (A') (A') (A') (A') (A")
       Virtual   (A') (A') (A') (A") (A') (A') (A') (A') (A") (A')
                 (A") (A') (A') (A') (A') (A') (A") (A') (A") (A')
                 (A") (A') (A') (A') (A") (A") (A') (A') (A') (A')
                 (A') (A") (A') (A") (A') (A')
 The electronic state of the initial guess is 1-A'.
 Leave Link  401 at Mon Feb 20 10:15:28 2023, MaxMem=   754974720 cpu:               1.5 elap:               0.8
 (Enter /opt/cluster/programs/g16-c.01/g16/l502.exe)
 Keep R1 ints in memory in symmetry-blocked form, NReq=1210682.
 FoFCou: FMM=F IPFlag=           0 FMFlag=           0 FMFlg1=           0
         NFxFlg=           0 DoJE=F BraDBF=F KetDBF=F FulRan=T
         wScrn=  0.000000 ICntrl=       600 IOpCl=  0 I1Cent=           0 NGrid=           0
         NMat0=    1 NMatS0=    861 NMatT0=    0 NMatD0=    1 NMtDS0=    0 NMtDT0=    0
 Petite list used in FoFCou.
 Closed shell SCF:
 Using DIIS extrapolation, IDIIS=  1040.
 NGot=   754974720 LenX=   754771907 LenY=   754769617
 Requested convergence on RMS density matrix=1.00D-08 within 200 cycles.
 Requested convergence on MAX density matrix=1.00D-06.
 Requested convergence on             energy=1.00D-06.
 No special actions if energy rises.

 Cycle   1  Pass 1  IDiag  1:
 E= -75.9562283418317    
 DIIS: error= 5.16D-02 at cycle   1 NSaved=   1.
 NSaved= 1 IEnMin= 1 EnMin= -75.9562283418317     IErMin= 1 ErrMin= 5.16D-02
 ErrMax= 5.16D-02  0.00D+00 EMaxC= 1.00D-01 BMatC= 1.20D-01 BMatP= 1.20D-01
 IDIUse=3 WtCom= 4.84D-01 WtEn= 5.16D-01
 Coeff-Com:  0.100D+01
 Coeff-En:   0.100D+01
 Coeff:      0.100D+01
 Gap=     0.457 Goal=   None    Shift=    0.000
 GapD=    0.457 DampG=2.000 DampE=0.500 DampFc=1.0000 IDamp=-1.
 RMSDP=6.36D-03 MaxDP=1.19D-01              OVMax= 1.20D-01

 Cycle   2  Pass 1  IDiag  1:
 E= -76.0021539849330     Delta-E=       -0.045925643101 Rises=F Damp=F
 DIIS: error= 4.02D-02 at cycle   2 NSaved=   2.
 NSaved= 2 IEnMin= 2 EnMin= -76.0021539849330     IErMin= 2 ErrMin= 4.02D-02
 ErrMax= 4.02D-02  0.00D+00 EMaxC= 1.00D-01 BMatC= 4.64D-02 BMatP= 1.20D-01
 IDIUse=3 WtCom= 5.98D-01 WtEn= 4.02D-01
 Coeff-Com:  0.373D+00 0.627D+00
 Coeff-En:   0.208D+00 0.792D+00
 Coeff:      0.307D+00 0.693D+00
 Gap=     0.561 Goal=   None    Shift=    0.000
 RMSDP=2.96D-03 MaxDP=5.51D-02 DE=-4.59D-02 OVMax= 5.95D-02

 Cycle   3  Pass 1  IDiag  1:
 E= -76.0340035761122     Delta-E=       -0.031849591179 Rises=F Damp=F
 DIIS: error= 4.82D-03 at cycle   3 NSaved=   3.
 NSaved= 3 IEnMin= 3 EnMin= -76.0340035761122     IErMin= 3 ErrMin= 4.82D-03
 ErrMax= 4.82D-03  0.00D+00 EMaxC= 1.00D-01 BMatC= 1.19D-03 BMatP= 4.64D-02
 IDIUse=3 WtCom= 9.52D-01 WtEn= 4.82D-02
 Coeff-Com: -0.375D-01 0.937D-01 0.944D+00
 Coeff-En:   0.000D+00 0.000D+00 0.100D+01
 Coeff:     -0.357D-01 0.892D-01 0.946D+00
 Gap=     0.541 Goal=   None    Shift=    0.000
 RMSDP=4.79D-04 MaxDP=8.28D-03 DE=-3.18D-02 OVMax= 9.17D-03

 Cycle   4  Pass 1  IDiag  1:
 E= -76.0349065369802     Delta-E=       -0.000902960868 Rises=F Damp=F
 DIIS: error= 6.20D-04 at cycle   4 NSaved=   4.
 NSaved= 4 IEnMin= 4 EnMin= -76.0349065369802     IErMin= 4 ErrMin= 6.20D-04
 ErrMax= 6.20D-04  0.00D+00 EMaxC= 1.00D-01 BMatC= 7.83D-06 BMatP= 1.19D-03
 IDIUse=3 WtCom= 9.94D-01 WtEn= 6.20D-03
 Coeff-Com:  0.875D-02-0.438D-01-0.328D+00 0.136D+01
 Coeff-En:   0.000D+00 0.000D+00 0.000D+00 0.100D+01
 Coeff:      0.870D-02-0.435D-01-0.326D+00 0.136D+01
 Gap=     0.542 Goal=   None    Shift=    0.000
 RMSDP=1.18D-04 MaxDP=1.14D-03 DE=-9.03D-04 OVMax= 2.45D-03

 Cycle   5  Pass 1  IDiag  1:
 E= -76.0349261698812     Delta-E=       -0.000019632901 Rises=F Damp=F
 DIIS: error= 1.68D-04 at cycle   5 NSaved=   5.
 NSaved= 5 IEnMin= 5 EnMin= -76.0349261698812     IErMin= 5 ErrMin= 1.68D-04
 ErrMax= 1.68D-04  0.00D+00 EMaxC= 1.00D-01 BMatC= 3.60D-07 BMatP= 7.83D-06
 IDIUse=3 WtCom= 9.98D-01 WtEn= 1.68D-03
 Coeff-Com:  0.149D-03 0.281D-02 0.173D-01-0.265D+00 0.124D+01
 Coeff-En:   0.000D+00 0.000D+00 0.000D+00 0.000D+00 0.100D+01
 Coeff:      0.148D-03 0.280D-02 0.173D-01-0.264D+00 0.124D+01
 Gap=     0.543 Goal=   None    Shift=    0.000
 RMSDP=2.88D-05 MaxDP=3.75D-04 DE=-1.96D-05 OVMax= 6.55D-04

 Cycle   6  Pass 1  IDiag  1:
 E= -76.0349272794097     Delta-E=       -0.000001109529 Rises=F Damp=F
 DIIS: error= 3.38D-05 at cycle   6 NSaved=   6.
 NSaved= 6 IEnMin= 6 EnMin= -76.0349272794097     IErMin= 6 ErrMin= 3.38D-05
 ErrMax= 3.38D-05  0.00D+00 EMaxC= 1.00D-01 BMatC= 1.51D-08 BMatP= 3.60D-07
 IDIUse=1 WtCom= 1.00D+00 WtEn= 0.00D+00
 Coeff-Com: -0.416D-03 0.160D-02 0.127D-01-0.250D-01-0.221D+00 0.123D+01
 Coeff:     -0.416D-03 0.160D-02 0.127D-01-0.250D-01-0.221D+00 0.123D+01
 Gap=     0.543 Goal=   None    Shift=    0.000
 RMSDP=5.53D-06 MaxDP=9.38D-05 DE=-1.11D-06 OVMax= 1.51D-04

 Cycle   7  Pass 1  IDiag  1:
 E= -76.0349273281063     Delta-E=       -0.000000048697 Rises=F Damp=F
 DIIS: error= 7.37D-06 at cycle   7 NSaved=   7.
 NSaved= 7 IEnMin= 7 EnMin= -76.0349273281063     IErMin= 7 ErrMin= 7.37D-06
 ErrMax= 7.37D-06  0.00D+00 EMaxC= 1.00D-01 BMatC= 7.86D-10 BMatP= 1.51D-08
 IDIUse=1 WtCom= 1.00D+00 WtEn= 0.00D+00
 Coeff-Com:  0.147D-03-0.735D-03-0.583D-02 0.249D-01 0.103D-01-0.405D+00
 Coeff-Com:  0.138D+01
 Coeff:      0.147D-03-0.735D-03-0.583D-02 0.249D-01 0.103D-01-0.405D+00
 Coeff:      0.138D+01
 Gap=     0.543 Goal=   None    Shift=    0.000
 RMSDP=1.12D-06 MaxDP=2.17D-05 DE=-4.87D-08 OVMax= 3.27D-05

 Cycle   8  Pass 1  IDiag  1:
 E= -76.0349273302408     Delta-E=       -0.000000002135 Rises=F Damp=F
 DIIS: error= 8.38D-07 at cycle   8 NSaved=   8.
 NSaved= 8 IEnMin= 8 EnMin= -76.0349273302408     IErMin= 8 ErrMin= 8.38D-07
 ErrMax= 8.38D-07  0.00D+00 EMaxC= 1.00D-01 BMatC= 2.21D-11 BMatP= 7.86D-10
 IDIUse=1 WtCom= 1.00D+00 WtEn= 0.00D+00
 Coeff-Com: -0.129D-04 0.811D-04 0.706D-03-0.434D-02 0.680D-02 0.419D-01
 Coeff-Com: -0.308D+00 0.126D+01
 Coeff:     -0.129D-04 0.811D-04 0.706D-03-0.434D-02 0.680D-02 0.419D-01
 Coeff:     -0.308D+00 0.126D+01
 Gap=     0.543 Goal=   None    Shift=    0.000
 RMSDP=2.12D-07 MaxDP=3.02D-06 DE=-2.13D-09 OVMax= 4.39D-06

 Cycle   9  Pass 1  IDiag  1:
 E= -76.0349273302946     Delta-E=       -0.000000000054 Rises=F Damp=F
 DIIS: error= 1.21D-07 at cycle   9 NSaved=   9.
 NSaved= 9 IEnMin= 9 EnMin= -76.0349273302946     IErMin= 9 ErrMin= 1.21D-07
 ErrMax= 1.21D-07  0.00D+00 EMaxC= 1.00D-01 BMatC= 4.95D-13 BMatP= 2.21D-11
 IDIUse=1 WtCom= 1.00D+00 WtEn= 0.00D+00
 Coeff-Com: -0.506D-05 0.250D-04 0.194D-03-0.745D-03-0.806D-03 0.129D-01
 Coeff-Com: -0.315D-01-0.772D-01 0.110D+01
 Coeff:     -0.506D-05 0.250D-04 0.194D-03-0.745D-03-0.806D-03 0.129D-01
 Coeff:     -0.315D-01-0.772D-01 0.110D+01
 Gap=     0.543 Goal=   None    Shift=    0.000
 RMSDP=3.61D-08 MaxDP=3.64D-07 DE=-5.38D-11 OVMax= 5.47D-07

 Cycle  10  Pass 1  IDiag  1:
 E= -76.0349273302957     Delta-E=       -0.000000000001 Rises=F Damp=F
 DIIS: error= 3.27D-08 at cycle  10 NSaved=  10.
 NSaved=10 IEnMin=10 EnMin= -76.0349273302957     IErMin=10 ErrMin= 3.27D-08
 ErrMax= 3.27D-08  0.00D+00 EMaxC= 1.00D-01 BMatC= 2.64D-14 BMatP= 4.95D-13
 IDIUse=1 WtCom= 1.00D+00 WtEn= 0.00D+00
 Coeff-Com:  0.152D-05-0.805D-05-0.644D-04 0.295D-03 0.628D-04-0.441D-02
 Coeff-Com:  0.169D-01-0.159D-01-0.333D+00 0.134D+01
 Coeff:      0.152D-05-0.805D-05-0.644D-04 0.295D-03 0.628D-04-0.441D-02
 Coeff:      0.169D-01-0.159D-01-0.333D+00 0.134D+01
 Gap=     0.543 Goal=   None    Shift=    0.000
 RMSDP=8.61D-09 MaxDP=8.54D-08 DE=-1.05D-12 OVMax= 1.43D-07

 SCF Done:  E(RHF) =  -76.0349273303     A.U. after   10 cycles
            NFock= 10  Conv=0.86D-08     -V/T= 2.0014
 KE= 7.592723667293D+01 PE=-1.988948739161D+02 EE= 3.774811002481D+01
 Leave Link  502 at Mon Feb 20 10:15:31 2023, MaxMem=   754974720 cpu:               6.3 elap:               3.2
 (Enter /opt/cluster/programs/g16-c.01/g16/l601.exe)
 Copying SCF densities to generalized density rwf, IOpCl= 0 IROHF=0.

 **********************************************************************

            Population analysis using the SCF Density.

 **********************************************************************

 Orbital symmetries:
       Occupied  (A') (A') (A') (A') (A")
       Virtual   (A') (A') (A') (A") (A') (A') (A') (A') (A") (A')
                 (A") (A') (A') (A') (A') (A') (A") (A') (A") (A')
                 (A') (A") (A') (A') (A") (A") (A') (A') (A') (A')
                 (A') (A") (A') (A") (A') (A')
 The electronic state is 1-A'.
 Alpha  occ. eigenvalues --  -20.57320  -1.35266  -0.73355  -0.56919  -0.50711
 Alpha virt. eigenvalues --    0.03585   0.05724   0.17471   0.19571   0.21924
 Alpha virt. eigenvalues --    0.22912   0.29243   0.32303   0.38062   0.42029
 Alpha virt. eigenvalues --    0.44677   0.53106   0.63921   0.66340   0.83097
 Alpha virt. eigenvalues --    0.90976   1.09141   1.10109   1.14844   1.35696
 Alpha virt. eigenvalues --    1.46570   1.49246   1.59093   1.98481   2.02184
 Alpha virt. eigenvalues --    2.10024   2.40522   2.44707   2.63969   2.76770
 Alpha virt. eigenvalues --    2.90067   3.66377   3.67884   3.70958   4.06132
 Alpha virt. eigenvalues --    4.31815
          Condensed to atoms (all electrons):
               1          2          3
     1  O    7.637502   0.356236   0.325963
     2  H    0.356236   0.585639  -0.043076
     3  H    0.325963  -0.043076   0.498615
 Mulliken charges:
               1
     1  O   -0.319700
     2  H    0.101202
     3  H    0.218498
 Sum of Mulliken charges =  -0.00000
 Mulliken charges with hydrogens summed into heavy atoms:
               1
     1  O   -0.000000
 Electronic spatial extent (au):  <R**2>=             19.5820
 Charge=             -0.0000 electrons
 Dipole moment (field-independent basis, Debye):
    X=              0.0359    Y=             -1.8688    Z=              0.0000  Tot=              1.8691
 Quadrupole moment (field-independent basis, Debye-Ang):
   XX=             -3.9575   YY=             -6.4642   ZZ=             -7.6074
   XY=              0.3399   XZ=              0.0000   YZ=              0.0000
 Traceless Quadrupole moment (field-independent basis, Debye-Ang):
   XX=              2.0522   YY=             -0.4545   ZZ=             -1.5977
   XY=              0.3399   XZ=              0.0000   YZ=              0.0000
 Octapole moment (field-independent basis, Debye-Ang**2):
  XXX=              0.1188  YYY=             -1.0860  ZZZ=              0.0000  XYY=             -0.2062
  XXY=             -1.3907  XXZ=              0.0000  XZZ=              0.0613  YZZ=             -0.2707
  YYZ=              0.0000  XYZ=              0.0000
 Hexadecapole moment (field-independent basis, Debye-Ang**3):
 XXXX=             -5.7479 YYYY=             -7.3559 ZZZZ=             -6.8810 XXXY=              0.0654
 XXXZ=              0.0000 YYYX=             -0.0031 YYYZ=              0.0000 ZZZX=              0.0000
 ZZZY=              0.0000 XXYY=             -1.9586 XXZZ=             -2.4952 YYZZ=             -2.4170
 XXYZ=              0.0000 YYXZ=              0.0000 ZZXY=             -0.0709
 N-N= 9.184599888069D+00 E-N=-1.988948735329D+02  KE= 7.592723667293D+01
 Symmetry A'   KE= 7.148979652465D+01
 Symmetry A"   KE= 4.437440148274D+00
 No NMR shielding tensors so no spin-rotation constants.
 Leave Link  601 at Mon Feb 20 10:15:31 2023, MaxMem=   754974720 cpu:               0.8 elap:               0.4
 (Enter /opt/cluster/programs/g16-c.01/g16/l9999.exe)
 Unable to Open any file for archive entry.
 1\1\GINC-NODE105\SP\RHF\Aug-CC-pVDZ\H2O1\BOITTIER\20-Feb-2023\0\\#P HF
 /aug-cc-pVDZ scf(maxcycle=200)\\Gaussian input\\0,1\O,0,0.,0.11751,0.\
 H,0,0.7183372325,-0.4395112028,0.\H,0,-0.8759350061,-0.3833081957,0.\\
 Version=ES64L-G16RevC.01\State=1-A'\HF=-76.0349273\RMSD=8.614e-09\Dipo
 le=-0.0943563,-0.7293016,0.\Quadrupole=1.5589833,-0.3710969,-1.1878864
 ,-0.0299162,0.,0.\PG=CS [SG(H2O1)]\\@
 The archive entry for this job was punched.


 MARY HAD A LITTLE LAMB
      HIS FEET WERE BLACK AS SOOT,
           AND EVERYWHERE THAT MARY WENT
                HIS SOOTY FOOT HE PUT.

                    -- NONAME
 Job cpu time:       0 days  0 hours  0 minutes 11.9 seconds.
 Elapsed time:       0 days  0 hours  0 minutes  6.0 seconds.
 File lengths (MBytes):  RWF=      6 Int=      0 D2E=      0 Chk=      1 Scr=      1
 Normal termination of Gaussian 16 at Mon Feb 20 10:15:31 2023.
