 Entering Gaussian System, Link 0=/opt/cluster/programs/g16-c.01/g16/g16
 Input=/scratch/boittier/jobs/tmp.7262241/gaussian_91_water_ccsdt_adz.com
 Output=/scratch/boittier/jobs/tmp.7262241/gaussian_91_water_ccsdt_adz.out
 Initial command:
 /opt/cluster/programs/g16-c.01/g16/l1.exe "/scratch/boittier/jobs/tmp.7262241/Gau-175064.inp" -scrdir="/scratch/boittier/jobs/tmp.7262241/"
 Entering Link 1 = /opt/cluster/programs/g16-c.01/g16/l1.exe PID=    175065.
  
 Copyright (c) 1988-2019, Gaussian, Inc.  All Rights Reserved.
  
 This is part of the Gaussian(R) 16 program.  It is based on
 the Gaussian(R) 09 system (copyright 2009, Gaussian, Inc.),
 the Gaussian(R) 03 system (copyright 2003, Gaussian, Inc.),
 the Gaussian(R) 98 system (copyright 1998, Gaussian, Inc.),
 the Gaussian(R) 94 system (copyright 1995, Gaussian, Inc.),
 the Gaussian 92(TM) system (copyright 1992, Gaussian, Inc.),
 the Gaussian 90(TM) system (copyright 1990, Gaussian, Inc.),
 the Gaussian 88(TM) system (copyright 1988, Gaussian, Inc.),
 the Gaussian 86(TM) system (copyright 1986, Carnegie Mellon
 University), and the Gaussian 82(TM) system (copyright 1983,
 Carnegie Mellon University). Gaussian is a federally registered
 trademark of Gaussian, Inc.
  
 This software contains proprietary and confidential information,
 including trade secrets, belonging to Gaussian, Inc.
  
 This software is provided under written license and may be
 used, copied, transmitted, or stored only in accord with that
 written license.
  
 The following legend is applicable only to US Government
 contracts under FAR:
  
                    RESTRICTED RIGHTS LEGEND
  
 Use, reproduction and disclosure by the US Government is
 subject to restrictions as set forth in subparagraphs (a)
 and (c) of the Commercial Computer Software - Restricted
 Rights clause in FAR 52.227-19.
  
 Gaussian, Inc.
 340 Quinnipiac St., Bldg. 40, Wallingford CT 06492
  
  
 ---------------------------------------------------------------
 Warning -- This program may not be used in any manner that
 competes with the business of Gaussian, Inc. or will provide
 assistance to any competitor of Gaussian, Inc.  The licensee
 of this program is prohibited from giving any competitor of
 Gaussian, Inc. access to this program.  By using this program,
 the user acknowledges that Gaussian, Inc. is engaged in the
 business of creating and licensing software in the field of
 computational chemistry and represents and warrants to the
 licensee that it is not a competitor of Gaussian, Inc. and that
 it will not use this program in any manner prohibited above.
 ---------------------------------------------------------------
  

 Cite this work as:
 Gaussian 16, Revision C.01,
 M. J. Frisch, G. W. Trucks, H. B. Schlegel, G. E. Scuseria, 
 M. A. Robb, J. R. Cheeseman, G. Scalmani, V. Barone, 
 G. A. Petersson, H. Nakatsuji, X. Li, M. Caricato, A. V. Marenich, 
 J. Bloino, B. G. Janesko, R. Gomperts, B. Mennucci, H. P. Hratchian, 
 J. V. Ortiz, A. F. Izmaylov, J. L. Sonnenberg, D. Williams-Young, 
 F. Ding, F. Lipparini, F. Egidi, J. Goings, B. Peng, A. Petrone, 
 T. Henderson, D. Ranasinghe, V. G. Zakrzewski, J. Gao, N. Rega, 
 G. Zheng, W. Liang, M. Hada, M. Ehara, K. Toyota, R. Fukuda, 
 J. Hasegawa, M. Ishida, T. Nakajima, Y. Honda, O. Kitao, H. Nakai, 
 T. Vreven, K. Throssell, J. A. Montgomery, Jr., J. E. Peralta, 
 F. Ogliaro, M. J. Bearpark, J. J. Heyd, E. N. Brothers, K. N. Kudin, 
 V. N. Staroverov, T. A. Keith, R. Kobayashi, J. Normand, 
 K. Raghavachari, A. P. Rendell, J. C. Burant, S. S. Iyengar, 
 J. Tomasi, M. Cossi, J. M. Millam, M. Klene, C. Adamo, R. Cammi, 
 J. W. Ochterski, R. L. Martin, K. Morokuma, O. Farkas, 
 J. B. Foresman, and D. J. Fox, Gaussian, Inc., Wallingford CT, 2019.
 
 ******************************************
 Gaussian 16:  ES64L-G16RevC.01  3-Jul-2019
                 8-Feb-2023 
 ******************************************
 %nproc=4
 Will use up to    4 processors via shared memory.
 %mem=5760MB
 %chk=gaussian_91_water_ccsdt_adz.chk
 ----------------------------------------
 #P CCSD(T)/aug-cc-pVDZ scf(maxcycle=200)
 ----------------------------------------
 1/38=1,172=1/1;
 2/12=2,17=6,18=5,40=1/2;
 3/5=16,7=10,11=9,25=1,30=1/1,2,3;
 4//1;
 5/5=2,7=200,38=5/2;
 8/6=4,9=120000,10=1/1,4;
 9/5=7,14=2/13;
 6/7=2,8=2,9=2,10=2/1;
 99/5=1,9=1/99;
 Leave Link    1 at Wed Feb  8 14:49:16 2023, MaxMem=   754974720 cpu:               0.1 elap:               0.0
 (Enter /opt/cluster/programs/g16-c.01/g16/l101.exe)
 --------------
 Gaussian input
 --------------
 Symbolic Z-matrix:
 Charge =  0 Multiplicity = 1
 O                     0.        0.11751   0. 
 H                     0.75785  -0.47015   0. 
 H                    -0.77821  -0.44291   0. 
 
 ITRead=  0  0  0
 MicOpt= -1 -1 -1
 NAtoms=      3 NQM=        3 NQMF=       0 NMMI=      0 NMMIF=      0
                NMic=       0 NMicF=      0.
                    Isotopes and Nuclear Properties:
 (Nuclear quadrupole moments (NQMom) in fm**2, nuclear magnetic moments (NMagM)
  in nuclear magnetons)

  Atom         1           2           3
 IAtWgt=          16           1           1
 AtmWgt=  15.9949146   1.0078250   1.0078250
 NucSpn=           0           1           1
 AtZEff=  -0.0000000  -0.0000000  -0.0000000
 NQMom=    0.0000000   0.0000000   0.0000000
 NMagM=    0.0000000   2.7928460   2.7928460
 AtZNuc=   8.0000000   1.0000000   1.0000000
 Leave Link  101 at Wed Feb  8 14:49:16 2023, MaxMem=   754974720 cpu:               0.7 elap:               0.2
 (Enter /opt/cluster/programs/g16-c.01/g16/l202.exe)
                          Input orientation:                          
 ---------------------------------------------------------------------
 Center     Atomic      Atomic             Coordinates (Angstroms)
 Number     Number       Type             X           Y           Z
 ---------------------------------------------------------------------
      1          8           0        0.000000    0.117510    0.000000
      2          1           0        0.757850   -0.470150    0.000000
      3          1           0       -0.778213   -0.442906    0.000000
 ---------------------------------------------------------------------
                    Distance matrix (angstroms):
                    1          2          3
     1  O    0.000000
     2  H    0.959000   0.000000
     3  H    0.959000   1.536304   0.000000
 Stoichiometry    H2O
 Framework group  C2V[C2(O),SGV(H2)]
 Deg. of freedom     2
 Full point group                 C2V     NOp   4
 Largest Abelian subgroup         C2V     NOp   4
 Largest concise Abelian subgroup C2      NOp   2
                         Standard orientation:                         
 ---------------------------------------------------------------------
 Center     Atomic      Atomic             Coordinates (Angstroms)
 Number     Number       Type             X           Y           Z
 ---------------------------------------------------------------------
      1          8           0        0.000000    0.000000    0.114826
      2          1           0       -0.000000    0.768152   -0.459303
      3          1           0       -0.000000   -0.768152   -0.459303
 ---------------------------------------------------------------------
 Rotational constants (GHZ):         856.5036695         424.9205794         284.0168163
 Leave Link  202 at Wed Feb  8 14:49:16 2023, MaxMem=   754974720 cpu:               0.1 elap:               0.0
 (Enter /opt/cluster/programs/g16-c.01/g16/l301.exe)
 Standard basis: Aug-CC-pVDZ (5D, 7F)
 Ernie: Thresh=  0.10000D-02 Tol=  0.10000D-05 Strict=F.
 Ernie:  2 primitive shells out of 39 were deleted.
 There are    20 symmetry adapted cartesian basis functions of A1  symmetry.
 There are     4 symmetry adapted cartesian basis functions of A2  symmetry.
 There are     7 symmetry adapted cartesian basis functions of B1  symmetry.
 There are    12 symmetry adapted cartesian basis functions of B2  symmetry.
 There are    18 symmetry adapted basis functions of A1  symmetry.
 There are     4 symmetry adapted basis functions of A2  symmetry.
 There are     7 symmetry adapted basis functions of B1  symmetry.
 There are    12 symmetry adapted basis functions of B2  symmetry.
    41 basis functions,    65 primitive gaussians,    43 cartesian basis functions
     5 alpha electrons        5 beta electrons
       nuclear repulsion energy         9.1732651216 Hartrees.
 IExCor=    0 DFT=F Ex=HF Corr=None ExCW=0 ScaHFX=  1.000000
 ScaDFX=  1.000000  1.000000  1.000000  1.000000 ScalE2=  1.000000  1.000000
 IRadAn=      5 IRanWt=     -1 IRanGd=            0 ICorTp=0 IEmpDi=  4
 NAtoms=    3 NActive=    3 NUniq=    2 SFac= 2.25D+00 NAtFMM=   60 NAOKFM=F Big=F
 Integral buffers will be    131072 words long.
 Raffenetti 1 integral format.
 Two-electron integral symmetry is turned on.
 Leave Link  301 at Wed Feb  8 14:49:16 2023, MaxMem=   754974720 cpu:               0.2 elap:               0.1
 (Enter /opt/cluster/programs/g16-c.01/g16/l302.exe)
 NPDir=0 NMtPBC=     1 NCelOv=     1 NCel=       1 NClECP=     1 NCelD=      1
         NCelK=      1 NCelE2=     1 NClLst=     1 CellRange=     0.0.
 One-electron integrals computed using PRISM.
 One-electron integral symmetry used in STVInt
 NBasis=    41 RedAO= T EigKep=  2.76D-03  NBF=    18     4     7    12
 NBsUse=    41 1.00D-06 EigRej= -1.00D+00 NBFU=    18     4     7    12
 Leave Link  302 at Wed Feb  8 14:49:17 2023, MaxMem=   754974720 cpu:               0.4 elap:               0.1
 (Enter /opt/cluster/programs/g16-c.01/g16/l303.exe)
 DipDrv:  MaxL=1.
 Leave Link  303 at Wed Feb  8 14:49:17 2023, MaxMem=   754974720 cpu:               0.2 elap:               0.1
 (Enter /opt/cluster/programs/g16-c.01/g16/l401.exe)
 ExpMin= 2.97D-02 ExpMax= 1.17D+04 ExpMxC= 4.01D+02 IAcc=3 IRadAn=         5 AccDes= 0.00D+00
 Harris functional with IExCor=  205 and IRadAn=       5 diagonalized for initial guess.
 HarFok:  IExCor=  205 AccDes= 0.00D+00 IRadAn=         5 IDoV= 1 UseB2=F ITyADJ=14
 ICtDFT=  3500011 ScaDFX=  1.000000  1.000000  1.000000  1.000000
 FoFCou: FMM=F IPFlag=           0 FMFlag=      100000 FMFlg1=           0
         NFxFlg=           0 DoJE=T BraDBF=F KetDBF=T FulRan=T
         wScrn=  0.000000 ICntrl=       500 IOpCl=  0 I1Cent=   200000004 NGrid=           0
         NMat0=    1 NMatS0=      1 NMatT0=    0 NMatD0=    1 NMtDS0=    0 NMtDT0=    0
 Petite list used in FoFCou.
 Harris En= -76.1252827495392    
 JPrj=0 DoOrth=F DoCkMO=F.
 Initial guess orbital symmetries:
       Occupied  (A1) (A1) (B2) (A1) (B1)
       Virtual   (A1) (B2) (A1) (B1) (A1) (B2) (B2) (A1) (A2) (A1)
                 (B1) (B2) (A1) (B2) (B2) (A1) (B1) (A1) (A2) (A1)
                 (B1) (B2) (A1) (B2) (A2) (B1) (B2) (A1) (A1) (B2)
                 (A1) (B1) (A1) (A2) (A1) (B2)
 The electronic state of the initial guess is 1-A1.
 Leave Link  401 at Wed Feb  8 14:49:17 2023, MaxMem=   754974720 cpu:               1.2 elap:               0.4
 (Enter /opt/cluster/programs/g16-c.01/g16/l502.exe)
 Keep R1 ints in memory in symmetry-blocked form, NReq=1211502.
 FoFCou: FMM=F IPFlag=           0 FMFlag=           0 FMFlg1=           0
         NFxFlg=           0 DoJE=F BraDBF=F KetDBF=F FulRan=T
         wScrn=  0.000000 ICntrl=       600 IOpCl=  0 I1Cent=           0 NGrid=           0
         NMat0=    1 NMatS0=    861 NMatT0=    0 NMatD0=    1 NMtDS0=    0 NMtDT0=    0
 Petite list used in FoFCou.
 Closed shell SCF:
 Using DIIS extrapolation, IDIIS=  1040.
 NGot=   754974720 LenX=   754868251 LenY=   754865961
 Requested convergence on RMS density matrix=1.00D-08 within 200 cycles.
 Requested convergence on MAX density matrix=1.00D-06.
 Requested convergence on             energy=1.00D-06.
 No special actions if energy rises.

 Cycle   1  Pass 1  IDiag  1:
 E= -75.9652346684324    
 DIIS: error= 5.08D-02 at cycle   1 NSaved=   1.
 NSaved= 1 IEnMin= 1 EnMin= -75.9652346684324     IErMin= 1 ErrMin= 5.08D-02
 ErrMax= 5.08D-02  0.00D+00 EMaxC= 1.00D-01 BMatC= 1.17D-01 BMatP= 1.17D-01
 IDIUse=3 WtCom= 4.92D-01 WtEn= 5.08D-01
 Coeff-Com:  0.100D+01
 Coeff-En:   0.100D+01
 Coeff:      0.100D+01
 Gap=     0.458 Goal=   None    Shift=    0.000
 GapD=    0.458 DampG=2.000 DampE=0.500 DampFc=1.0000 IDamp=-1.
 RMSDP=6.26D-03 MaxDP=1.17D-01              OVMax= 1.18D-01

 Cycle   2  Pass 1  IDiag  1:
 E= -76.0095948147519     Delta-E=       -0.044360146320 Rises=F Damp=F
 DIIS: error= 3.97D-02 at cycle   2 NSaved=   2.
 NSaved= 2 IEnMin= 2 EnMin= -76.0095948147519     IErMin= 2 ErrMin= 3.97D-02
 ErrMax= 3.97D-02  0.00D+00 EMaxC= 1.00D-01 BMatC= 4.49D-02 BMatP= 1.17D-01
 IDIUse=3 WtCom= 6.03D-01 WtEn= 3.97D-01
 Coeff-Com:  0.372D+00 0.628D+00
 Coeff-En:   0.209D+00 0.791D+00
 Coeff:      0.307D+00 0.693D+00
 Gap=     0.562 Goal=   None    Shift=    0.000
 RMSDP=2.92D-03 MaxDP=5.42D-02 DE=-4.44D-02 OVMax= 5.85D-02

 Cycle   3  Pass 1  IDiag  1:
 E= -76.0404316749388     Delta-E=       -0.030836860187 Rises=F Damp=F
 DIIS: error= 4.67D-03 at cycle   3 NSaved=   3.
 NSaved= 3 IEnMin= 3 EnMin= -76.0404316749388     IErMin= 3 ErrMin= 4.67D-03
 ErrMax= 4.67D-03  0.00D+00 EMaxC= 1.00D-01 BMatC= 1.15D-03 BMatP= 4.49D-02
 IDIUse=3 WtCom= 9.53D-01 WtEn= 4.67D-02
 Coeff-Com: -0.376D-01 0.932D-01 0.944D+00
 Coeff-En:   0.000D+00 0.000D+00 0.100D+01
 Coeff:     -0.358D-01 0.889D-01 0.947D+00
 Gap=     0.543 Goal=   None    Shift=    0.000
 RMSDP=4.68D-04 MaxDP=8.11D-03 DE=-3.08D-02 OVMax= 9.19D-03

 Cycle   4  Pass 1  IDiag  1:
 E= -76.0412954179676     Delta-E=       -0.000863743029 Rises=F Damp=F
 DIIS: error= 6.19D-04 at cycle   4 NSaved=   4.
 NSaved= 4 IEnMin= 4 EnMin= -76.0412954179676     IErMin= 4 ErrMin= 6.19D-04
 ErrMax= 6.19D-04  0.00D+00 EMaxC= 1.00D-01 BMatC= 7.06D-06 BMatP= 1.15D-03
 IDIUse=3 WtCom= 9.94D-01 WtEn= 6.19D-03
 Coeff-Com:  0.905D-02-0.434D-01-0.332D+00 0.137D+01
 Coeff-En:   0.000D+00 0.000D+00 0.000D+00 0.100D+01
 Coeff:      0.900D-02-0.431D-01-0.330D+00 0.136D+01
 Gap=     0.544 Goal=   None    Shift=    0.000
 RMSDP=1.11D-04 MaxDP=1.11D-03 DE=-8.64D-04 OVMax= 2.16D-03

 Cycle   5  Pass 1  IDiag  1:
 E= -76.0413126837393     Delta-E=       -0.000017265772 Rises=F Damp=F
 DIIS: error= 1.66D-04 at cycle   5 NSaved=   5.
 NSaved= 5 IEnMin= 5 EnMin= -76.0413126837393     IErMin= 5 ErrMin= 1.66D-04
 ErrMax= 1.66D-04  0.00D+00 EMaxC= 1.00D-01 BMatC= 2.86D-07 BMatP= 7.06D-06
 IDIUse=3 WtCom= 9.98D-01 WtEn= 1.66D-03
 Coeff-Com: -0.382D-03 0.458D-02 0.328D-01-0.302D+00 0.127D+01
 Coeff-En:   0.000D+00 0.000D+00 0.000D+00 0.000D+00 0.100D+01
 Coeff:     -0.382D-03 0.458D-02 0.327D-01-0.301D+00 0.126D+01
 Gap=     0.544 Goal=   None    Shift=    0.000
 RMSDP=2.51D-05 MaxDP=3.67D-04 DE=-1.73D-05 OVMax= 5.26D-04

 Cycle   6  Pass 1  IDiag  1:
 E= -76.0413135475630     Delta-E=       -0.000000863824 Rises=F Damp=F
 DIIS: error= 3.08D-05 at cycle   6 NSaved=   6.
 NSaved= 6 IEnMin= 6 EnMin= -76.0413135475630     IErMin= 6 ErrMin= 3.08D-05
 ErrMax= 3.08D-05  0.00D+00 EMaxC= 1.00D-01 BMatC= 1.06D-08 BMatP= 2.86D-07
 IDIUse=1 WtCom= 1.00D+00 WtEn= 0.00D+00
 Coeff-Com: -0.321D-03 0.119D-02 0.920D-02-0.146D-01-0.219D+00 0.122D+01
 Coeff:     -0.321D-03 0.119D-02 0.920D-02-0.146D-01-0.219D+00 0.122D+01
 Gap=     0.544 Goal=   None    Shift=    0.000
 RMSDP=4.18D-06 MaxDP=8.49D-05 DE=-8.64D-07 OVMax= 1.11D-04

 Cycle   7  Pass 1  IDiag  1:
 E= -76.0413135803954     Delta-E=       -0.000000032832 Rises=F Damp=F
 DIIS: error= 6.17D-06 at cycle   7 NSaved=   7.
 NSaved= 7 IEnMin= 7 EnMin= -76.0413135803954     IErMin= 7 ErrMin= 6.17D-06
 ErrMax= 6.17D-06  0.00D+00 EMaxC= 1.00D-01 BMatC= 5.41D-10 BMatP= 1.06D-08
 IDIUse=1 WtCom= 1.00D+00 WtEn= 0.00D+00
 Coeff-Com:  0.132D-03-0.655D-03-0.516D-02 0.227D-01 0.729D-02-0.384D+00
 Coeff-Com:  0.136D+01
 Coeff:      0.132D-03-0.655D-03-0.516D-02 0.227D-01 0.729D-02-0.384D+00
 Coeff:      0.136D+01
 Gap=     0.544 Goal=   None    Shift=    0.000
 RMSDP=8.63D-07 MaxDP=1.68D-05 DE=-3.28D-08 OVMax= 2.45D-05

 Cycle   8  Pass 1  IDiag  1:
 E= -76.0413135817933     Delta-E=       -0.000000001398 Rises=F Damp=F
 DIIS: error= 7.14D-07 at cycle   8 NSaved=   8.
 NSaved= 8 IEnMin= 8 EnMin= -76.0413135817933     IErMin= 8 ErrMin= 7.14D-07
 ErrMax= 7.14D-07  0.00D+00 EMaxC= 1.00D-01 BMatC= 1.38D-11 BMatP= 5.41D-10
 IDIUse=1 WtCom= 1.00D+00 WtEn= 0.00D+00
 Coeff-Com: -0.266D-04 0.146D-03 0.120D-02-0.638D-02 0.549D-02 0.755D-01
 Coeff-Com: -0.418D+00 0.134D+01
 Coeff:     -0.266D-04 0.146D-03 0.120D-02-0.638D-02 0.549D-02 0.755D-01
 Coeff:     -0.418D+00 0.134D+01
 Gap=     0.544 Goal=   None    Shift=    0.000
 RMSDP=1.91D-07 MaxDP=2.52D-06 DE=-1.40D-09 OVMax= 3.57D-06

 Cycle   9  Pass 1  IDiag  1:
 E= -76.0413135818279     Delta-E=       -0.000000000035 Rises=F Damp=F
 DIIS: error= 8.27D-08 at cycle   9 NSaved=   9.
 NSaved= 9 IEnMin= 9 EnMin= -76.0413135818279     IErMin= 9 ErrMin= 8.27D-08
 ErrMax= 8.27D-08  0.00D+00 EMaxC= 1.00D-01 BMatC= 2.32D-13 BMatP= 1.38D-11
 IDIUse=1 WtCom= 1.00D+00 WtEn= 0.00D+00
 Coeff-Com:  0.328D-05-0.192D-04-0.171D-03 0.107D-02-0.148D-02-0.106D-01
 Coeff-Com:  0.783D-01-0.342D+00 0.127D+01
 Coeff:      0.328D-05-0.192D-04-0.171D-03 0.107D-02-0.148D-02-0.106D-01
 Coeff:      0.783D-01-0.342D+00 0.127D+01
 Gap=     0.544 Goal=   None    Shift=    0.000
 RMSDP=2.43D-08 MaxDP=2.42D-07 DE=-3.46D-11 OVMax= 3.85D-07

 Cycle  10  Pass 1  IDiag  1:
 E= -76.0413135818283     Delta-E=       -0.000000000000 Rises=F Damp=F
 DIIS: error= 2.47D-08 at cycle  10 NSaved=  10.
 NSaved=10 IEnMin=10 EnMin= -76.0413135818283     IErMin=10 ErrMin= 2.47D-08
 ErrMax= 2.47D-08  0.00D+00 EMaxC= 1.00D-01 BMatC= 1.22D-14 BMatP= 2.32D-13
 IDIUse=1 WtCom= 1.00D+00 WtEn= 0.00D+00
 Coeff-Com: -0.219D-06 0.168D-05 0.209D-04-0.189D-03 0.469D-03 0.934D-03
 Coeff-Com: -0.136D-01 0.751D-01-0.460D+00 0.140D+01
 Coeff:     -0.219D-06 0.168D-05 0.209D-04-0.189D-03 0.469D-03 0.934D-03
 Coeff:     -0.136D-01 0.751D-01-0.460D+00 0.140D+01
 Gap=     0.544 Goal=   None    Shift=    0.000
 RMSDP=5.71D-09 MaxDP=5.43D-08 DE=-4.69D-13 OVMax= 1.23D-07

 SCF Done:  E(RHF) =  -76.0413135818     A.U. after   10 cycles
            NFock= 10  Conv=0.57D-08     -V/T= 2.0016
 KE= 7.591754969464D+01 PE=-1.988601048044D+02 EE= 3.772797640634D+01
 Leave Link  502 at Wed Feb  8 14:49:17 2023, MaxMem=   754974720 cpu:               0.6 elap:               0.2
 (Enter /opt/cluster/programs/g16-c.01/g16/l801.exe)
 Windowed orbitals will be sorted by symmetry type.
 ExpMin= 2.97D-02 ExpMax= 1.17D+04 ExpMxC= 4.01D+02 IAcc=3 IRadAn=         5 AccDes= 0.00D+00
 HarFok:  IExCor=  205 AccDes= 0.00D+00 IRadAn=         5 IDoV=-2 UseB2=F ITyADJ=14
 ICtDFT= 12500011 ScaDFX=  1.000000  1.000000  1.000000  1.000000
 Largest valence mixing into a core orbital is  6.13D-05
 Largest core mixing into a valence orbital is  1.76D-05
 Range of M.O.s used for correlation:     2    41
 NBasis=    41 NAE=     5 NBE=     5 NFC=     1 NFV=     0
 NROrb=     40 NOA=     4 NOB=     4 NVA=    36 NVB=    36
 Leave Link  801 at Wed Feb  8 14:49:18 2023, MaxMem=   754974720 cpu:               0.2 elap:               0.1
 (Enter /opt/cluster/programs/g16-c.01/g16/l804.exe)
 Closed-shell transformation, MDV=   754974720 ITran=4 ISComp=2.
 Unit  1 TFree=         57018 TCopy=        140846.
 Semi-Direct transformation.
 ModeAB=           4 MOrb=             4 LenV=     754769467
 LASXX=        30213 LTotXX=       30213 LenRXX=       63236
 LTotAB=       33023 MaxLAS=      110560 LenRXY=           0
 NonZer=       93449 LenScr=      785920 LnRSAI=      110560
 LnScr1=      785920 LExtra=           0 Total=      1745636
 MaxDsk=          -1 SrtSym=           T ITran=            4
 DoSDTr:  NPSUse=  4
 JobTyp=0 Pass  1:  I=   1 to   4.
 (rs|ai) integrals will be sorted in core.
 Complete sort for first half transformation.
 First half transformation complete.
 Complete sort for second half transformation.
 Second half transformation complete.
 Spin components of T(2) and E(2):
     alpha-alpha T2 =       0.7720664640D-02 E2=     -0.2791197028D-01
     alpha-beta  T2 =       0.4365735896D-01 E2=     -0.1635577763D+00
     beta-beta   T2 =       0.7720664640D-02 E2=     -0.2791197028D-01
 ANorm=    0.1029125205D+01
 E2 =    -0.2193817168D+00 EUMP2 =    -0.76260695298666D+02
 Leave Link  804 at Wed Feb  8 14:49:18 2023, MaxMem=   754974720 cpu:               0.3 elap:               0.1
 (Enter /opt/cluster/programs/g16-c.01/g16/l913.exe)
 CIDS:  MDV=   754974720.
 Frozen-core window:  NFC=   1 NFV=   0.
 IFCWin=0 IBDFC=1 NFBD=     0     0 NFCmp=     0     0 NFFFC=     0     0
 Using DD3R+UMP44R for 1st iteration.
 Using DD4RQ for 2nd and later iterations.
 Keep R2 and R3 ints in memory in symmetry-blocked form, NReq=1214278.
 FoFCou: FMM=F IPFlag=           0 FMFlag=           0 FMFlg1=           0
         NFxFlg=           0 DoJE=F BraDBF=F KetDBF=F FulRan=T
         wScrn=  0.000000 ICntrl=       600 IOpCl=  0 I1Cent=           0 NGrid=           0
         NMat0=    1 NMatS0=    861 NMatT0=    0 NMatD0=    1 NMtDS0=    0 NMtDT0=    0
 Petite list used in FoFCou.
 CIDS: In Core Option IDoMem=           1.
 CCSD(T)
 =======
 Iterations=  50 Convergence= 0.100D-06
 Produce multiple copies of IABC intergrals
 Iteration Nr.   1
 **********************
 DD1Dir will call FoFMem   1 times, MxPair=        20
 NAB=    10 NAA=     0 NBB=     0.
 MP4(R+Q)=  0.24781395D-02
 Maximum subspace dimension=  5
 A-vector RMS=  5.3982100D-03 Max=  1.7059888D-02 conv= 1.00D-05.
 RLE energy=       -0.2215911881
 E3=       -0.47551923D-02        EUMP3=      -0.76265450491D+02
 E4(DQ)=   -0.14933781D-02        UMP4(DQ)=   -0.76266943869D+02
 E4(SDQ)=  -0.32197896D-02        UMP4(SDQ)=  -0.76268670280D+02
 VARIATIONAL ENERGIES WITH THE FIRST-ORDER WAVEFUNCTION:
 DE(Corr)= -0.22156919     E(Corr)=     -76.262882776    
 NORM(A)=   0.10301372D+01
 Iteration Nr.   2
 **********************
 DD1Dir will call FoFMem   1 times, MxPair=        20
 NAB=    10 NAA=     0 NBB=     0.
 A-vector RMS=  6.4005487D-04 Max=  3.0275124D-03 conv= 1.00D-05.
 RLE energy=       -0.2267425596
 DE(Corr)= -0.22613340     E(CORR)=     -76.267446986     Delta=-4.56D-03
 NORM(A)=   0.10323302D+01
 Iteration Nr.   3
 **********************
 DD1Dir will call FoFMem   1 times, MxPair=        20
 NAB=    10 NAA=     0 NBB=     0.
 A-vector RMS=  7.4406745D-04 Max=  2.8710105D-03 conv= 1.00D-05.
 RLE energy=       -0.2271155352
 DE(Corr)= -0.22669604     E(CORR)=     -76.268009617     Delta=-5.63D-04
 NORM(A)=   0.10328468D+01
 Iteration Nr.   4
 **********************
 DD1Dir will call FoFMem   1 times, MxPair=        20
 NAB=    10 NAA=     0 NBB=     0.
 A-vector RMS=  9.3833115D-05 Max=  3.6815991D-04 conv= 1.00D-05.
 RLE energy=       -0.2271527758
 DE(Corr)= -0.22712280     E(CORR)=     -76.268436381     Delta=-4.27D-04
 NORM(A)=   0.10329603D+01
 Iteration Nr.   5
 **********************
 DD1Dir will call FoFMem   1 times, MxPair=        20
 NAB=    10 NAA=     0 NBB=     0.
 A-vector RMS=  3.8819836D-05 Max=  1.6376594D-04 conv= 1.00D-05.
 RLE energy=       -0.2271584456
 DE(Corr)= -0.22715479     E(CORR)=     -76.268468374     Delta=-3.20D-05
 NORM(A)=   0.10329786D+01
 Iteration Nr.   6
 **********************
 DD1Dir will call FoFMem   1 times, MxPair=        20
 NAB=    10 NAA=     0 NBB=     0.
 A-vector RMS=  1.0553296D-05 Max=  4.1633494D-05 conv= 1.00D-05.
 RLE energy=       -0.2271557096
 DE(Corr)= -0.22715693     E(CORR)=     -76.268470513     Delta=-2.14D-06
 NORM(A)=   0.10329805D+01
 Iteration Nr.   7
 **********************
 DD1Dir will call FoFMem   1 times, MxPair=        20
 NAB=    10 NAA=     0 NBB=     0.
 A-vector RMS=  4.0107419D-06 Max=  1.3306699D-05 conv= 1.00D-05.
 RLE energy=       -0.2271562759
 DE(Corr)= -0.22715694     E(CORR)=     -76.268470519     Delta=-5.89D-09
 NORM(A)=   0.10329811D+01
 Iteration Nr.   8
 **********************
 DD1Dir will call FoFMem   1 times, MxPair=        20
 NAB=    10 NAA=     0 NBB=     0.
 A-vector RMS=  1.3129210D-06 Max=  4.9066520D-06 conv= 1.00D-05.
 RLE energy=       -0.2271565200
 DE(Corr)= -0.22715660     E(CORR)=     -76.268470187     Delta= 3.32D-07
 NORM(A)=   0.10329815D+01
 Iteration Nr.   9
 **********************
 DD1Dir will call FoFMem   1 times, MxPair=        20
 NAB=    10 NAA=     0 NBB=     0.
 A-vector RMS=  3.5935374D-07 Max=  1.3732299D-06 conv= 1.00D-05.
 RLE energy=       -0.2271567377
 DE(Corr)= -0.22715675     E(CORR)=     -76.268470327     Delta=-1.41D-07
 NORM(A)=   0.10329816D+01
 Iteration Nr.  10
 **********************
 DD1Dir will call FoFMem   1 times, MxPair=        20
 NAB=    10 NAA=     0 NBB=     0.
 A-vector RMS=  1.7104123D-07 Max=  6.0755659D-07 conv= 1.00D-05.
 RLE energy=       -0.2271567780
 DE(Corr)= -0.22715676     E(CORR)=     -76.268470340     Delta=-1.22D-08
 NORM(A)=   0.10329817D+01
 CI/CC converged in   10 iterations to DelEn=-1.22D-08 Conv= 1.00D-07 ErrA1= 1.71D-07 Conv= 1.00D-05
 Wavefunction amplitudes converged. E(Corr)=     -76.268470340    
 Largest amplitude= 3.46D-02
 IPart=  1 IA=    3   10.95% done.
 IPart=  2 IA=    5   21.27% done.
 IPart=  1 IA=    7   30.95% done.
 IPart=  2 IA=    9   40.00% done.
 IPart=  1 IA=   12   52.38% done.
 IPart=  1 IA=   15   63.33% done.
 IPart=  3 IA=   18   72.86% done.
 IPart=  4 IA=   21   80.95% done.
 IPart=  3 IA=   26   91.27% done.
 Time for triples=        0.80 seconds.
 T4(CCSD)= -0.56115214D-02
 T5(CCSD)=  0.40205964D-03
 CCSD(T)= -0.76273679801D+02
 Discarding MO integrals.
 Leave Link  913 at Wed Feb  8 14:49:18 2023, MaxMem=   754974720 cpu:               1.7 elap:               0.4
 (Enter /opt/cluster/programs/g16-c.01/g16/l601.exe)
 Copying SCF densities to generalized density rwf, IOpCl= 0 IROHF=0.

 **********************************************************************

            Population analysis using the SCF Density.

 **********************************************************************

 Orbital symmetries:
       Occupied  (A1) (A1) (B2) (A1) (B1)
       Virtual   (A1) (B2) (A1) (B1) (A1) (B2) (B2) (A1) (A2) (A1)
                 (B1) (B2) (A1) (B2) (B2) (A1) (B1) (A1) (A2) (A1)
                 (B2) (B1) (A1) (B2) (A2) (B1) (A1) (B2) (A1) (B2)
                 (A1) (B1) (A1) (A2) (A1) (B2)
 The electronic state is 1-A1.
 Alpha  occ. eigenvalues --  -20.57667  -1.35434  -0.72208  -0.58148  -0.50873
 Alpha virt. eigenvalues --    0.03557   0.05775   0.17425   0.19654   0.22222
 Alpha virt. eigenvalues --    0.23088   0.29147   0.32829   0.38458   0.40765
 Alpha virt. eigenvalues --    0.43647   0.53700   0.64877   0.65768   0.81615
 Alpha virt. eigenvalues --    0.92273   1.09905   1.11220   1.14883   1.31775
 Alpha virt. eigenvalues --    1.46933   1.48501   1.58140   1.99740   2.01629
 Alpha virt. eigenvalues --    2.10149   2.38789   2.47630   2.62175   2.71956
 Alpha virt. eigenvalues --    2.94876   3.67140   3.68747   3.70344   4.03863
 Alpha virt. eigenvalues --    4.29981
          Condensed to atoms (all electrons):
               1          2          3
     1  O    7.629965   0.337926   0.337926
     2  H    0.337926   0.546677  -0.037512
     3  H    0.337926  -0.037512   0.546677
 Mulliken charges:
               1
     1  O   -0.305817
     2  H    0.152909
     3  H    0.152909
 Sum of Mulliken charges =  -0.00000
 Mulliken charges with hydrogens summed into heavy atoms:
               1
     1  O   -0.000000
 Electronic spatial extent (au):  <R**2>=             19.5629
 Charge=             -0.0000 electrons
 Dipole moment (field-independent basis, Debye):
    X=             -0.0000    Y=             -0.0000    Z=             -1.9681  Tot=              1.9681
 Quadrupole moment (field-independent basis, Debye-Ang):
   XX=             -7.5973   YY=             -4.1896   ZZ=             -6.3243
   XY=              0.0000   XZ=              0.0000   YZ=              0.0000
 Traceless Quadrupole moment (field-independent basis, Debye-Ang):
   XX=             -1.5603   YY=              1.8475   ZZ=             -0.2872
   XY=              0.0000   XZ=              0.0000   YZ=              0.0000
 Octapole moment (field-independent basis, Debye-Ang**2):
  XXX=              0.0000  YYY=             -0.0000  ZZZ=             -1.1618  XYY=             -0.0000
  XXY=             -0.0000  XXZ=             -0.2904  XZZ=              0.0000  YZZ=             -0.0000
  YYZ=             -1.3993  XYZ=             -0.0000
 Hexadecapole moment (field-independent basis, Debye-Ang**3):
 XXXX=             -6.8358 YYYY=             -5.9546 ZZZZ=             -7.3295 XXXY=             -0.0000
 XXXZ=             -0.0000 YYYX=             -0.0000 YYYZ=             -0.0000 ZZZX=             -0.0000
 ZZZY=             -0.0000 XXYY=             -2.4699 XXZZ=             -2.4083 YYZZ=             -1.9186
 XXYZ=             -0.0000 YYXZ=              0.0000 ZZXY=             -0.0000
 N-N= 9.173265121592D+00 E-N=-1.988601050236D+02  KE= 7.591754969464D+01
 Symmetry A1   KE= 6.792694795514D+01
 Symmetry A2   KE= 1.719187694171D-32
 Symmetry B1   KE= 4.442663057241D+00
 Symmetry B2   KE= 3.547938682263D+00
 Leave Link  601 at Wed Feb  8 14:49:19 2023, MaxMem=   754974720 cpu:               0.1 elap:               0.0
 (Enter /opt/cluster/programs/g16-c.01/g16/l9999.exe)
 Unable to Open any file for archive entry.
 1\1\GINC-NODE57\SP\RCCSD(T)-FC\Aug-CC-pVDZ\H2O1\BOITTIER\08-Feb-2023\0
 \\#P CCSD(T)/aug-cc-pVDZ scf(maxcycle=200)\\Gaussian input\\0,1\O,0,0.
 ,0.11751,0.\H,0,0.7578497316,-0.4701504329,0.\H,0,-0.7782126143,-0.442
 9060302,0.\\Version=ES64L-G16RevC.01\State=1-A1\HF=-76.0413136\MP2=-76
 .2606953\MP3=-76.2654505\MP4D=-76.269422\MP4DQ=-76.2669439\MP4SDQ=-76.
 2686703\CCSD=-76.2684703\CCSD(T)=-76.2736798\RMSD=5.709e-09\PG=C02V [C
 2(O1),SGV(H2)]\\@
 The archive entry for this job was punched.


 BETTER TO HUNT IN FIELDS, FOR HEALTH UNBOUGHT
 THAN FEE THE DOCTOR FOR A NAUSEOUS DRAUGHT.
 THE WISE, FOR CURE, ON EXERCISE DEPEND;
 GOD NEVER MADE HIS WORK FOR MAN TO MEND.
     -- JOHN DRYDEN (1631-1700)
 Job cpu time:       0 days  0 hours  0 minutes  6.1 seconds.
 Elapsed time:       0 days  0 hours  0 minutes  1.8 seconds.
 File lengths (MBytes):  RWF=     20 Int=      0 D2E=      0 Chk=      1 Scr=      1
 Normal termination of Gaussian 16 at Wed Feb  8 14:49:19 2023.
