 Entering Gaussian System, Link 0=/opt/cluster/programs/g16-c.01/g16/g16
 Input=/scratch/boittier/jobs/tmp.7311844/gaussian_16_water_hf_adz2.com
 Output=/scratch/boittier/jobs/tmp.7311844/gaussian_16_water_hf_adz2.out
 Initial command:
 /opt/cluster/programs/g16-c.01/g16/l1.exe "/scratch/boittier/jobs/tmp.7311844/Gau-179605.inp" -scrdir="/scratch/boittier/jobs/tmp.7311844/"
 Entering Link 1 = /opt/cluster/programs/g16-c.01/g16/l1.exe PID=    179606.
  
 Copyright (c) 1988-2019, Gaussian, Inc.  All Rights Reserved.
  
 This is part of the Gaussian(R) 16 program.  It is based on
 the Gaussian(R) 09 system (copyright 2009, Gaussian, Inc.),
 the Gaussian(R) 03 system (copyright 2003, Gaussian, Inc.),
 the Gaussian(R) 98 system (copyright 1998, Gaussian, Inc.),
 the Gaussian(R) 94 system (copyright 1995, Gaussian, Inc.),
 the Gaussian 92(TM) system (copyright 1992, Gaussian, Inc.),
 the Gaussian 90(TM) system (copyright 1990, Gaussian, Inc.),
 the Gaussian 88(TM) system (copyright 1988, Gaussian, Inc.),
 the Gaussian 86(TM) system (copyright 1986, Carnegie Mellon
 University), and the Gaussian 82(TM) system (copyright 1983,
 Carnegie Mellon University). Gaussian is a federally registered
 trademark of Gaussian, Inc.
  
 This software contains proprietary and confidential information,
 including trade secrets, belonging to Gaussian, Inc.
  
 This software is provided under written license and may be
 used, copied, transmitted, or stored only in accord with that
 written license.
  
 The following legend is applicable only to US Government
 contracts under FAR:
  
                    RESTRICTED RIGHTS LEGEND
  
 Use, reproduction and disclosure by the US Government is
 subject to restrictions as set forth in subparagraphs (a)
 and (c) of the Commercial Computer Software - Restricted
 Rights clause in FAR 52.227-19.
  
 Gaussian, Inc.
 340 Quinnipiac St., Bldg. 40, Wallingford CT 06492
  
  
 ---------------------------------------------------------------
 Warning -- This program may not be used in any manner that
 competes with the business of Gaussian, Inc. or will provide
 assistance to any competitor of Gaussian, Inc.  The licensee
 of this program is prohibited from giving any competitor of
 Gaussian, Inc. access to this program.  By using this program,
 the user acknowledges that Gaussian, Inc. is engaged in the
 business of creating and licensing software in the field of
 computational chemistry and represents and warrants to the
 licensee that it is not a competitor of Gaussian, Inc. and that
 it will not use this program in any manner prohibited above.
 ---------------------------------------------------------------
  

 Cite this work as:
 Gaussian 16, Revision C.01,
 M. J. Frisch, G. W. Trucks, H. B. Schlegel, G. E. Scuseria, 
 M. A. Robb, J. R. Cheeseman, G. Scalmani, V. Barone, 
 G. A. Petersson, H. Nakatsuji, X. Li, M. Caricato, A. V. Marenich, 
 J. Bloino, B. G. Janesko, R. Gomperts, B. Mennucci, H. P. Hratchian, 
 J. V. Ortiz, A. F. Izmaylov, J. L. Sonnenberg, D. Williams-Young, 
 F. Ding, F. Lipparini, F. Egidi, J. Goings, B. Peng, A. Petrone, 
 T. Henderson, D. Ranasinghe, V. G. Zakrzewski, J. Gao, N. Rega, 
 G. Zheng, W. Liang, M. Hada, M. Ehara, K. Toyota, R. Fukuda, 
 J. Hasegawa, M. Ishida, T. Nakajima, Y. Honda, O. Kitao, H. Nakai, 
 T. Vreven, K. Throssell, J. A. Montgomery, Jr., J. E. Peralta, 
 F. Ogliaro, M. J. Bearpark, J. J. Heyd, E. N. Brothers, K. N. Kudin, 
 V. N. Staroverov, T. A. Keith, R. Kobayashi, J. Normand, 
 K. Raghavachari, A. P. Rendell, J. C. Burant, S. S. Iyengar, 
 J. Tomasi, M. Cossi, J. M. Millam, M. Klene, C. Adamo, R. Cammi, 
 J. W. Ochterski, R. L. Martin, K. Morokuma, O. Farkas, 
 J. B. Foresman, and D. J. Fox, Gaussian, Inc., Wallingford CT, 2019.
 
 ******************************************
 Gaussian 16:  ES64L-G16RevC.01  3-Jul-2019
                20-Feb-2023 
 ******************************************
 %nproc=4
 Will use up to    4 processors via shared memory.
 %mem=5760MB
 %chk=gaussian_16_water_hf_adz2.chk
 -----------------------------------
 #P HF/aug-cc-pVDZ scf(maxcycle=200)
 -----------------------------------
 1/38=1,172=1/1;
 2/12=2,17=6,18=5,40=1/2;
 3/5=16,7=10,11=9,25=1,30=1/1,2,3;
 4//1;
 5/5=2,7=200,38=5/2;
 6/7=2,8=2,9=2,10=2,28=1/1;
 99/5=1,9=1/99;
 Leave Link    1 at Mon Feb 20 10:14:44 2023, MaxMem=   754974720 cpu:               0.1 elap:               0.1
 (Enter /opt/cluster/programs/g16-c.01/g16/l101.exe)
 --------------
 Gaussian input
 --------------
 Symbolic Z-matrix:
 Charge =  0 Multiplicity = 1
 O                     0.        0.11751   0. 
 H                     0.71834  -0.43951   0. 
 H                    -0.81867  -0.27753   0. 
 
 ITRead=  0  0  0
 MicOpt= -1 -1 -1
 NAtoms=      3 NQM=        3 NQMF=       0 NMMI=      0 NMMIF=      0
                NMic=       0 NMicF=      0.
                    Isotopes and Nuclear Properties:
 (Nuclear quadrupole moments (NQMom) in fm**2, nuclear magnetic moments (NMagM)
  in nuclear magnetons)

  Atom         1           2           3
 IAtWgt=          16           1           1
 AtmWgt=  15.9949146   1.0078250   1.0078250
 NucSpn=           0           1           1
 AtZEff=  -0.0000000  -0.0000000  -0.0000000
 NQMom=    0.0000000   0.0000000   0.0000000
 NMagM=    0.0000000   2.7928460   2.7928460
 AtZNuc=   8.0000000   1.0000000   1.0000000
 Leave Link  101 at Mon Feb 20 10:14:45 2023, MaxMem=   754974720 cpu:               0.4 elap:               0.2
 (Enter /opt/cluster/programs/g16-c.01/g16/l202.exe)
                          Input orientation:                          
 ---------------------------------------------------------------------
 Center     Atomic      Atomic             Coordinates (Angstroms)
 Number     Number       Type             X           Y           Z
 ---------------------------------------------------------------------
      1          8           0        0.000000    0.117510    0.000000
      2          1           0        0.718337   -0.439511    0.000000
      3          1           0       -0.818673   -0.277528    0.000000
 ---------------------------------------------------------------------
                    Distance matrix (angstroms):
                    1          2          3
     1  O    0.000000
     2  H    0.909000   0.000000
     3  H    0.909000   1.545523   0.000000
 Stoichiometry    H2O
 Framework group  C2V[C2(O),SGV(H2)]
 Deg. of freedom     2
 Full point group                 C2V     NOp   4
 Largest Abelian subgroup         C2V     NOp   4
 Largest concise Abelian subgroup C2      NOp   2
                         Standard orientation:                         
 ---------------------------------------------------------------------
 Center     Atomic      Atomic             Coordinates (Angstroms)
 Number     Number       Type             X           Y           Z
 ---------------------------------------------------------------------
      1          8           0       -0.000000   -0.000000    0.095733
      2          1           0       -0.000000    0.772761   -0.382933
      3          1           0       -0.000000   -0.772761   -0.382933
 ---------------------------------------------------------------------
 Rotational constants (GHZ):        1232.2047511         419.8665071         313.1593158
 Leave Link  202 at Mon Feb 20 10:14:45 2023, MaxMem=   754974720 cpu:               0.4 elap:               0.2
 (Enter /opt/cluster/programs/g16-c.01/g16/l301.exe)
 Standard basis: Aug-CC-pVDZ (5D, 7F)
 Ernie: Thresh=  0.10000D-02 Tol=  0.10000D-05 Strict=F.
 Ernie:  2 primitive shells out of 39 were deleted.
 There are    20 symmetry adapted cartesian basis functions of A1  symmetry.
 There are     4 symmetry adapted cartesian basis functions of A2  symmetry.
 There are     7 symmetry adapted cartesian basis functions of B1  symmetry.
 There are    12 symmetry adapted cartesian basis functions of B2  symmetry.
 There are    18 symmetry adapted basis functions of A1  symmetry.
 There are     4 symmetry adapted basis functions of A2  symmetry.
 There are     7 symmetry adapted basis functions of B1  symmetry.
 There are    12 symmetry adapted basis functions of B2  symmetry.
    41 basis functions,    65 primitive gaussians,    43 cartesian basis functions
     5 alpha electrons        5 beta electrons
       nuclear repulsion energy         9.6568440240 Hartrees.
 IExCor=    0 DFT=F Ex=HF Corr=None ExCW=0 ScaHFX=  1.000000
 ScaDFX=  1.000000  1.000000  1.000000  1.000000 ScalE2=  1.000000  1.000000
 IRadAn=      5 IRanWt=     -1 IRanGd=            0 ICorTp=0 IEmpDi=  4
 NAtoms=    3 NActive=    3 NUniq=    2 SFac= 2.25D+00 NAtFMM=   60 NAOKFM=F Big=F
 Integral buffers will be    131072 words long.
 Raffenetti 1 integral format.
 Two-electron integral symmetry is turned on.
 Leave Link  301 at Mon Feb 20 10:14:45 2023, MaxMem=   754974720 cpu:               0.1 elap:               0.1
 (Enter /opt/cluster/programs/g16-c.01/g16/l302.exe)
 NPDir=0 NMtPBC=     1 NCelOv=     1 NCel=       1 NClECP=     1 NCelD=      1
         NCelK=      1 NCelE2=     1 NClLst=     1 CellRange=     0.0.
 One-electron integrals computed using PRISM.
 One-electron integral symmetry used in STVInt
 NBasis=    41 RedAO= T EigKep=  2.55D-03  NBF=    18     4     7    12
 NBsUse=    41 1.00D-06 EigRej= -1.00D+00 NBFU=    18     4     7    12
 Leave Link  302 at Mon Feb 20 10:14:45 2023, MaxMem=   754974720 cpu:               1.1 elap:               0.6
 (Enter /opt/cluster/programs/g16-c.01/g16/l303.exe)
 DipDrv:  MaxL=1.
 Leave Link  303 at Mon Feb 20 10:14:46 2023, MaxMem=   754974720 cpu:               0.8 elap:               0.4
 (Enter /opt/cluster/programs/g16-c.01/g16/l401.exe)
 ExpMin= 2.97D-02 ExpMax= 1.17D+04 ExpMxC= 4.01D+02 IAcc=3 IRadAn=         5 AccDes= 0.00D+00
 Harris functional with IExCor=  205 and IRadAn=       5 diagonalized for initial guess.
 HarFok:  IExCor=  205 AccDes= 0.00D+00 IRadAn=         5 IDoV= 1 UseB2=F ITyADJ=14
 ICtDFT=  3500011 ScaDFX=  1.000000  1.000000  1.000000  1.000000
 FoFCou: FMM=F IPFlag=           0 FMFlag=      100000 FMFlg1=           0
         NFxFlg=           0 DoJE=T BraDBF=F KetDBF=T FulRan=T
         wScrn=  0.000000 ICntrl=       500 IOpCl=  0 I1Cent=   200000004 NGrid=           0
         NMat0=    1 NMatS0=      1 NMatT0=    0 NMatD0=    1 NMtDS0=    0 NMtDT0=    0
 Petite list used in FoFCou.
 Harris En= -76.1230474917631    
 JPrj=0 DoOrth=F DoCkMO=F.
 Initial guess orbital symmetries:
       Occupied  (A1) (A1) (B2) (A1) (B1)
       Virtual   (A1) (B2) (A1) (B1) (A1) (B2) (B2) (A1) (A2) (A1)
                 (B1) (B2) (A1) (B2) (B2) (A1) (B1) (A1) (A2) (A1)
                 (B1) (B2) (A1) (B2) (A2) (B1) (B2) (A1) (A1) (B2)
                 (A1) (B1) (A1) (A2) (A1) (B2)
 The electronic state of the initial guess is 1-A1.
 Leave Link  401 at Mon Feb 20 10:14:47 2023, MaxMem=   754974720 cpu:               2.1 elap:               1.0
 (Enter /opt/cluster/programs/g16-c.01/g16/l502.exe)
 Keep R1 ints in memory in symmetry-blocked form, NReq=1211530.
 FoFCou: FMM=F IPFlag=           0 FMFlag=           0 FMFlg1=           0
         NFxFlg=           0 DoJE=F BraDBF=F KetDBF=F FulRan=T
         wScrn=  0.000000 ICntrl=       600 IOpCl=  0 I1Cent=           0 NGrid=           0
         NMat0=    1 NMatS0=    861 NMatT0=    0 NMatD0=    1 NMtDS0=    0 NMtDT0=    0
 Petite list used in FoFCou.
 Closed shell SCF:
 Using DIIS extrapolation, IDIIS=  1040.
 NGot=   754974720 LenX=   754868251 LenY=   754865961
 Requested convergence on RMS density matrix=1.00D-08 within 200 cycles.
 Requested convergence on MAX density matrix=1.00D-06.
 Requested convergence on             energy=1.00D-06.
 No special actions if energy rises.

 Cycle   1  Pass 1  IDiag  1:
 E= -75.9534769210269    
 DIIS: error= 5.39D-02 at cycle   1 NSaved=   1.
 NSaved= 1 IEnMin= 1 EnMin= -75.9534769210269     IErMin= 1 ErrMin= 5.39D-02
 ErrMax= 5.39D-02  0.00D+00 EMaxC= 1.00D-01 BMatC= 1.29D-01 BMatP= 1.29D-01
 IDIUse=3 WtCom= 4.61D-01 WtEn= 5.39D-01
 Coeff-Com:  0.100D+01
 Coeff-En:   0.100D+01
 Coeff:      0.100D+01
 Gap=     0.453 Goal=   None    Shift=    0.000
 GapD=    0.453 DampG=2.000 DampE=0.500 DampFc=1.0000 IDamp=-1.
 RMSDP=6.58D-03 MaxDP=1.26D-01              OVMax= 1.23D-01

 Cycle   2  Pass 1  IDiag  1:
 E= -76.0051529715248     Delta-E=       -0.051676050498 Rises=F Damp=F
 DIIS: error= 3.88D-02 at cycle   2 NSaved=   2.
 NSaved= 2 IEnMin= 2 EnMin= -76.0051529715248     IErMin= 2 ErrMin= 3.88D-02
 ErrMax= 3.88D-02  0.00D+00 EMaxC= 1.00D-01 BMatC= 4.59D-02 BMatP= 1.29D-01
 IDIUse=3 WtCom= 6.12D-01 WtEn= 3.88D-01
 Coeff-Com:  0.363D+00 0.637D+00
 Coeff-En:   0.171D+00 0.829D+00
 Coeff:      0.289D+00 0.711D+00
 Gap=     0.568 Goal=   None    Shift=    0.000
 RMSDP=2.94D-03 MaxDP=5.50D-02 DE=-5.17D-02 OVMax= 5.88D-02

 Cycle   3  Pass 1  IDiag  1:
 E= -76.0359230097556     Delta-E=       -0.030770038231 Rises=F Damp=F
 DIIS: error= 5.23D-03 at cycle   3 NSaved=   3.
 NSaved= 3 IEnMin= 3 EnMin= -76.0359230097556     IErMin= 3 ErrMin= 5.23D-03
 ErrMax= 5.23D-03  0.00D+00 EMaxC= 1.00D-01 BMatC= 1.28D-03 BMatP= 4.59D-02
 IDIUse=3 WtCom= 9.48D-01 WtEn= 5.23D-02
 Coeff-Com: -0.357D-01 0.996D-01 0.936D+00
 Coeff-En:   0.000D+00 0.000D+00 0.100D+01
 Coeff:     -0.338D-01 0.944D-01 0.939D+00
 Gap=     0.547 Goal=   None    Shift=    0.000
 RMSDP=4.87D-04 MaxDP=8.31D-03 DE=-3.08D-02 OVMax= 8.58D-03

 Cycle   4  Pass 1  IDiag  1:
 E= -76.0368376065652     Delta-E=       -0.000914596810 Rises=F Damp=F
 DIIS: error= 4.56D-04 at cycle   4 NSaved=   4.
 NSaved= 4 IEnMin= 4 EnMin= -76.0368376065652     IErMin= 4 ErrMin= 4.56D-04
 ErrMax= 4.56D-04  0.00D+00 EMaxC= 1.00D-01 BMatC= 5.34D-06 BMatP= 1.28D-03
 IDIUse=3 WtCom= 9.95D-01 WtEn= 4.56D-03
 Coeff-Com:  0.871D-02-0.437D-01-0.319D+00 0.135D+01
 Coeff-En:   0.000D+00 0.000D+00 0.000D+00 0.100D+01
 Coeff:      0.867D-02-0.435D-01-0.317D+00 0.135D+01
 Gap=     0.547 Goal=   None    Shift=    0.000
 RMSDP=9.95D-05 MaxDP=7.89D-04 DE=-9.15D-04 OVMax= 2.04D-03

 Cycle   5  Pass 1  IDiag  1:
 E= -76.0368500181038     Delta-E=       -0.000012411539 Rises=F Damp=F
 DIIS: error= 1.17D-04 at cycle   5 NSaved=   5.
 NSaved= 5 IEnMin= 5 EnMin= -76.0368500181038     IErMin= 5 ErrMin= 1.17D-04
 ErrMax= 1.17D-04  0.00D+00 EMaxC= 1.00D-01 BMatC= 1.96D-07 BMatP= 5.34D-06
 IDIUse=3 WtCom= 9.99D-01 WtEn= 1.17D-03
 Coeff-Com: -0.827D-03 0.641D-02 0.451D-01-0.347D+00 0.130D+01
 Coeff-En:   0.000D+00 0.000D+00 0.000D+00 0.000D+00 0.100D+01
 Coeff:     -0.826D-03 0.640D-02 0.451D-01-0.346D+00 0.130D+01
 Gap=     0.548 Goal=   None    Shift=    0.000
 RMSDP=2.25D-05 MaxDP=2.62D-04 DE=-1.24D-05 OVMax= 5.18D-04

 Cycle   6  Pass 1  IDiag  1:
 E= -76.0368506067353     Delta-E=       -0.000000588631 Rises=F Damp=F
 DIIS: error= 1.91D-05 at cycle   6 NSaved=   6.
 NSaved= 6 IEnMin= 6 EnMin= -76.0368506067353     IErMin= 6 ErrMin= 1.91D-05
 ErrMax= 1.91D-05  0.00D+00 EMaxC= 1.00D-01 BMatC= 6.00D-09 BMatP= 1.96D-07
 IDIUse=1 WtCom= 1.00D+00 WtEn= 0.00D+00
 Coeff-Com: -0.203D-03 0.774D-03 0.549D-02-0.303D-02-0.203D+00 0.120D+01
 Coeff:     -0.203D-03 0.774D-03 0.549D-02-0.303D-02-0.203D+00 0.120D+01
 Gap=     0.548 Goal=   None    Shift=    0.000
 RMSDP=3.17D-06 MaxDP=5.42D-05 DE=-5.89D-07 OVMax= 9.41D-05

 Cycle   7  Pass 1  IDiag  1:
 E= -76.0368506253111     Delta-E=       -0.000000018576 Rises=F Damp=F
 DIIS: error= 5.25D-06 at cycle   7 NSaved=   7.
 NSaved= 7 IEnMin= 7 EnMin= -76.0368506253111     IErMin= 7 ErrMin= 5.25D-06
 ErrMax= 5.25D-06  0.00D+00 EMaxC= 1.00D-01 BMatC= 3.58D-10 BMatP= 6.00D-09
 IDIUse=1 WtCom= 1.00D+00 WtEn= 0.00D+00
 Coeff-Com:  0.113D-03-0.625D-03-0.453D-02 0.224D-01-0.944D-02-0.359D+00
 Coeff-Com:  0.135D+01
 Coeff:      0.113D-03-0.625D-03-0.453D-02 0.224D-01-0.944D-02-0.359D+00
 Coeff:      0.135D+01
 Gap=     0.548 Goal=   None    Shift=    0.000
 RMSDP=7.08D-07 MaxDP=1.44D-05 DE=-1.86D-08 OVMax= 2.12D-05

 Cycle   8  Pass 1  IDiag  1:
 E= -76.0368506262812     Delta-E=       -0.000000000970 Rises=F Damp=F
 DIIS: error= 6.54D-07 at cycle   8 NSaved=   8.
 NSaved= 8 IEnMin= 8 EnMin= -76.0368506262812     IErMin= 8 ErrMin= 6.54D-07
 ErrMax= 6.54D-07  0.00D+00 EMaxC= 1.00D-01 BMatC= 9.73D-12 BMatP= 3.58D-10
 IDIUse=1 WtCom= 1.00D+00 WtEn= 0.00D+00
 Coeff-Com: -0.208D-04 0.128D-03 0.966D-03-0.591D-02 0.980D-02 0.571D-01
 Coeff-Com: -0.382D+00 0.132D+01
 Coeff:     -0.208D-04 0.128D-03 0.966D-03-0.591D-02 0.980D-02 0.571D-01
 Coeff:     -0.382D+00 0.132D+01
 Gap=     0.548 Goal=   None    Shift=    0.000
 RMSDP=1.49D-07 MaxDP=2.14D-06 DE=-9.70D-10 OVMax= 2.95D-06

 Cycle   9  Pass 1  IDiag  1:
 E= -76.0368506263050     Delta-E=       -0.000000000024 Rises=F Damp=F
 DIIS: error= 6.68D-08 at cycle   9 NSaved=   9.
 NSaved= 9 IEnMin= 9 EnMin= -76.0368506263050     IErMin= 9 ErrMin= 6.68D-08
 ErrMax= 6.68D-08  0.00D+00 EMaxC= 1.00D-01 BMatC= 9.27D-14 BMatP= 9.73D-12
 IDIUse=1 WtCom= 1.00D+00 WtEn= 0.00D+00
 Coeff-Com:  0.106D-05-0.821D-05-0.695D-04 0.607D-03-0.167D-02-0.247D-02
 Coeff-Com:  0.408D-01-0.217D+00 0.118D+01
 Coeff:      0.106D-05-0.821D-05-0.695D-04 0.607D-03-0.167D-02-0.247D-02
 Coeff:      0.408D-01-0.217D+00 0.118D+01
 Gap=     0.548 Goal=   None    Shift=    0.000
 RMSDP=1.46D-08 MaxDP=1.87D-07 DE=-2.38D-11 OVMax= 2.61D-07

 Cycle  10  Pass 1  IDiag  1:
 E= -76.0368506263052     Delta-E=       -0.000000000000 Rises=F Damp=F
 DIIS: error= 1.52D-08 at cycle  10 NSaved=  10.
 NSaved=10 IEnMin=10 EnMin= -76.0368506263052     IErMin=10 ErrMin= 1.52D-08
 ErrMax= 1.52D-08  0.00D+00 EMaxC= 1.00D-01 BMatC= 3.09D-15 BMatP= 9.27D-14
 IDIUse=1 WtCom= 1.00D+00 WtEn= 0.00D+00
 Coeff-Com: -0.324D-07 0.754D-06 0.912D-05-0.121D-03 0.445D-03-0.843D-04
 Coeff-Com: -0.755D-02 0.497D-01-0.390D+00 0.135D+01
 Coeff:     -0.324D-07 0.754D-06 0.912D-05-0.121D-03 0.445D-03-0.843D-04
 Coeff:     -0.755D-02 0.497D-01-0.390D+00 0.135D+01
 Gap=     0.548 Goal=   None    Shift=    0.000
 RMSDP=2.82D-09 MaxDP=2.46D-08 DE=-1.71D-13 OVMax= 3.64D-08

 SCF Done:  E(RHF) =  -76.0368506263     A.U. after   10 cycles
            NFock= 10  Conv=0.28D-08     -V/T= 1.9989
 KE= 7.612029677091D+01 PE=-1.999277366596D+02 EE= 3.811374523836D+01
 Leave Link  502 at Mon Feb 20 10:14:50 2023, MaxMem=   754974720 cpu:               6.3 elap:               3.2
 (Enter /opt/cluster/programs/g16-c.01/g16/l601.exe)
 Copying SCF densities to generalized density rwf, IOpCl= 0 IROHF=0.

 **********************************************************************

            Population analysis using the SCF Density.

 **********************************************************************

 Orbital symmetries:
       Occupied  (A1) (A1) (B2) (A1) (B1)
       Virtual   (A1) (B2) (A1) (B1) (A1) (B2) (B2) (A1) (A2) (A1)
                 (B1) (B2) (B2) (A1) (B2) (A1) (B1) (A1) (A2) (A1)
                 (B2) (B1) (A1) (B2) (A2) (B1) (A1) (B2) (A1) (B2)
                 (A1) (B1) (A1) (A2) (A1) (B2)
 The electronic state is 1-A1.
 Alpha  occ. eigenvalues --  -20.56351  -1.37418  -0.77050  -0.57119  -0.51060
 Alpha virt. eigenvalues --    0.03710   0.05714   0.17398   0.19261   0.22387
 Alpha virt. eigenvalues --    0.22628   0.31159   0.32153   0.38314   0.43561
 Alpha virt. eigenvalues --    0.45996   0.53423   0.65479   0.66436   0.87442
 Alpha virt. eigenvalues --    0.90381   1.08018   1.08912   1.15326   1.40460
 Alpha virt. eigenvalues --    1.49610   1.51149   1.59102   2.01977   2.08597
 Alpha virt. eigenvalues --    2.10185   2.48532   2.53745   2.72530   2.79410
 Alpha virt. eigenvalues --    2.88723   3.66261   3.67794   3.72088   4.23272
 Alpha virt. eigenvalues --    4.35904
          Condensed to atoms (all electrons):
               1          2          3
     1  O    7.490136   0.363758   0.363758
     2  H    0.363758   0.596897  -0.069481
     3  H    0.363758  -0.069481   0.596897
 Mulliken charges:
               1
     1  O   -0.217652
     2  H    0.108826
     3  H    0.108826
 Sum of Mulliken charges =  -0.00000
 Mulliken charges with hydrogens summed into heavy atoms:
               1
     1  O   -0.000000
 Electronic spatial extent (au):  <R**2>=             18.9447
 Charge=             -0.0000 electrons
 Dipole moment (field-independent basis, Debye):
    X=             -0.0000    Y=             -0.0000    Z=             -1.7578  Tot=              1.7578
 Quadrupole moment (field-independent basis, Debye-Ang):
   XX=             -7.4944   YY=             -3.9232   ZZ=             -6.5664
   XY=              0.0000   XZ=              0.0000   YZ=              0.0000
 Traceless Quadrupole moment (field-independent basis, Debye-Ang):
   XX=             -1.4997   YY=              2.0715   ZZ=             -0.5717
   XY=              0.0000   XZ=              0.0000   YZ=              0.0000
 Octapole moment (field-independent basis, Debye-Ang**2):
  XXX=              0.0000  YYY=             -0.0000  ZZZ=             -1.0462  XYY=             -0.0000
  XXY=              0.0000  XXZ=             -0.2983  XZZ=              0.0000  YZZ=             -0.0000
  YYZ=             -1.2352  XYZ=             -0.0000
 Hexadecapole moment (field-independent basis, Debye-Ang**3):
 XXXX=             -6.7389 YYYY=             -5.3389 ZZZZ=             -6.9762 XXXY=             -0.0000
 XXXZ=             -0.0000 YYYX=             -0.0000 YYYZ=              0.0000 ZZZX=             -0.0000
 ZZZY=             -0.0000 XXYY=             -2.3752 XXZZ=             -2.3102 YYZZ=             -1.9617
 XXYZ=             -0.0000 YYXZ=              0.0000 ZZXY=             -0.0000
 N-N= 9.656844024018D+00 E-N=-1.999277367545D+02  KE= 7.612029677091D+01
 Symmetry A1   KE= 6.803822631639D+01
 Symmetry A2   KE= 9.358320182117D-33
 Symmetry B1   KE= 4.430274851119D+00
 Symmetry B2   KE= 3.651795603405D+00
 No NMR shielding tensors so no spin-rotation constants.
 Leave Link  601 at Mon Feb 20 10:14:51 2023, MaxMem=   754974720 cpu:               2.0 elap:               1.0
 (Enter /opt/cluster/programs/g16-c.01/g16/l9999.exe)
 Unable to Open any file for archive entry.
 1\1\GINC-NODE105\SP\RHF\Aug-CC-pVDZ\H2O1\BOITTIER\20-Feb-2023\0\\#P HF
 /aug-cc-pVDZ scf(maxcycle=200)\\Gaussian input\\0,1\O,0,0.,0.11751,0.\
 H,0,0.7183372325,-0.4395112028,0.\H,0,-0.8186734932,-0.2775276078,0.\\
 Version=ES64L-G16RevC.01\State=1-A1\HF=-76.0368506\RMSD=2.817e-09\Dipo
 le=-0.0724815,-0.6877535,0.\Quadrupole=1.518497,-0.403491,-1.115006,-0
 .2048309,0.,0.\PG=C02V [C2(O1),SGV(H2)]\\@
 The archive entry for this job was punched.


 GARBAGE IN, GARBAGE OUT
 Job cpu time:       0 days  0 hours  0 minutes 13.5 seconds.
 Elapsed time:       0 days  0 hours  0 minutes  6.8 seconds.
 File lengths (MBytes):  RWF=      6 Int=      0 D2E=      0 Chk=      1 Scr=      1
 Normal termination of Gaussian 16 at Mon Feb 20 10:14:51 2023.
