 Entering Gaussian System, Link 0=/opt/cluster/programs/g16-c.01/g16/g16
 Input=/scratch/boittier/jobs/tmp.7312187/gaussian_178_water_hf_adz.com
 Output=/scratch/boittier/jobs/tmp.7312187/gaussian_178_water_hf_adz.out
 Initial command:
 /opt/cluster/programs/g16-c.01/g16/l1.exe "/scratch/boittier/jobs/tmp.7312187/Gau-187349.inp" -scrdir="/scratch/boittier/jobs/tmp.7312187/"
 Entering Link 1 = /opt/cluster/programs/g16-c.01/g16/l1.exe PID=    187350.
  
 Copyright (c) 1988-2019, Gaussian, Inc.  All Rights Reserved.
  
 This is part of the Gaussian(R) 16 program.  It is based on
 the Gaussian(R) 09 system (copyright 2009, Gaussian, Inc.),
 the Gaussian(R) 03 system (copyright 2003, Gaussian, Inc.),
 the Gaussian(R) 98 system (copyright 1998, Gaussian, Inc.),
 the Gaussian(R) 94 system (copyright 1995, Gaussian, Inc.),
 the Gaussian 92(TM) system (copyright 1992, Gaussian, Inc.),
 the Gaussian 90(TM) system (copyright 1990, Gaussian, Inc.),
 the Gaussian 88(TM) system (copyright 1988, Gaussian, Inc.),
 the Gaussian 86(TM) system (copyright 1986, Carnegie Mellon
 University), and the Gaussian 82(TM) system (copyright 1983,
 Carnegie Mellon University). Gaussian is a federally registered
 trademark of Gaussian, Inc.
  
 This software contains proprietary and confidential information,
 including trade secrets, belonging to Gaussian, Inc.
  
 This software is provided under written license and may be
 used, copied, transmitted, or stored only in accord with that
 written license.
  
 The following legend is applicable only to US Government
 contracts under FAR:
  
                    RESTRICTED RIGHTS LEGEND
  
 Use, reproduction and disclosure by the US Government is
 subject to restrictions as set forth in subparagraphs (a)
 and (c) of the Commercial Computer Software - Restricted
 Rights clause in FAR 52.227-19.
  
 Gaussian, Inc.
 340 Quinnipiac St., Bldg. 40, Wallingford CT 06492
  
  
 ---------------------------------------------------------------
 Warning -- This program may not be used in any manner that
 competes with the business of Gaussian, Inc. or will provide
 assistance to any competitor of Gaussian, Inc.  The licensee
 of this program is prohibited from giving any competitor of
 Gaussian, Inc. access to this program.  By using this program,
 the user acknowledges that Gaussian, Inc. is engaged in the
 business of creating and licensing software in the field of
 computational chemistry and represents and warrants to the
 licensee that it is not a competitor of Gaussian, Inc. and that
 it will not use this program in any manner prohibited above.
 ---------------------------------------------------------------
  

 Cite this work as:
 Gaussian 16, Revision C.01,
 M. J. Frisch, G. W. Trucks, H. B. Schlegel, G. E. Scuseria, 
 M. A. Robb, J. R. Cheeseman, G. Scalmani, V. Barone, 
 G. A. Petersson, H. Nakatsuji, X. Li, M. Caricato, A. V. Marenich, 
 J. Bloino, B. G. Janesko, R. Gomperts, B. Mennucci, H. P. Hratchian, 
 J. V. Ortiz, A. F. Izmaylov, J. L. Sonnenberg, D. Williams-Young, 
 F. Ding, F. Lipparini, F. Egidi, J. Goings, B. Peng, A. Petrone, 
 T. Henderson, D. Ranasinghe, V. G. Zakrzewski, J. Gao, N. Rega, 
 G. Zheng, W. Liang, M. Hada, M. Ehara, K. Toyota, R. Fukuda, 
 J. Hasegawa, M. Ishida, T. Nakajima, Y. Honda, O. Kitao, H. Nakai, 
 T. Vreven, K. Throssell, J. A. Montgomery, Jr., J. E. Peralta, 
 F. Ogliaro, M. J. Bearpark, J. J. Heyd, E. N. Brothers, K. N. Kudin, 
 V. N. Staroverov, T. A. Keith, R. Kobayashi, J. Normand, 
 K. Raghavachari, A. P. Rendell, J. C. Burant, S. S. Iyengar, 
 J. Tomasi, M. Cossi, J. M. Millam, M. Klene, C. Adamo, R. Cammi, 
 J. W. Ochterski, R. L. Martin, K. Morokuma, O. Farkas, 
 J. B. Foresman, and D. J. Fox, Gaussian, Inc., Wallingford CT, 2019.
 
 ******************************************
 Gaussian 16:  ES64L-G16RevC.01  3-Jul-2019
                20-Feb-2023 
 ******************************************
 %nproc=4
 Will use up to    4 processors via shared memory.
 %mem=5760MB
 %chk=gaussian_178_water_hf_adz.chk
 -----------------------------------
 #P HF/aug-cc-pVDZ scf(maxcycle=200)
 -----------------------------------
 1/38=1,172=1/1;
 2/12=2,17=6,18=5,40=1/2;
 3/5=16,7=10,11=9,25=1,30=1/1,2,3;
 4//1;
 5/5=2,7=200,38=5/2;
 6/7=2,8=2,9=2,10=2,28=1/1;
 99/5=1,9=1/99;
 Leave Link    1 at Mon Feb 20 10:29:38 2023, MaxMem=   754974720 cpu:               0.1 elap:               0.1
 (Enter /opt/cluster/programs/g16-c.01/g16/l101.exe)
 --------------
 Gaussian input
 --------------
 Symbolic Z-matrix:
 Charge =  0 Multiplicity = 1
 O                     0.        0.11751   0. 
 H                     0.79736  -0.50079   0. 
 H                    -0.93711  -0.25653   0. 
 
 ITRead=  0  0  0
 MicOpt= -1 -1 -1
 NAtoms=      3 NQM=        3 NQMF=       0 NMMI=      0 NMMIF=      0
                NMic=       0 NMicF=      0.
                    Isotopes and Nuclear Properties:
 (Nuclear quadrupole moments (NQMom) in fm**2, nuclear magnetic moments (NMagM)
  in nuclear magnetons)

  Atom         1           2           3
 IAtWgt=          16           1           1
 AtmWgt=  15.9949146   1.0078250   1.0078250
 NucSpn=           0           1           1
 AtZEff=  -0.0000000  -0.0000000  -0.0000000
 NQMom=    0.0000000   0.0000000   0.0000000
 NMagM=    0.0000000   2.7928460   2.7928460
 AtZNuc=   8.0000000   1.0000000   1.0000000
 Leave Link  101 at Mon Feb 20 10:29:38 2023, MaxMem=   754974720 cpu:               1.2 elap:               0.6
 (Enter /opt/cluster/programs/g16-c.01/g16/l202.exe)
                          Input orientation:                          
 ---------------------------------------------------------------------
 Center     Atomic      Atomic             Coordinates (Angstroms)
 Number     Number       Type             X           Y           Z
 ---------------------------------------------------------------------
      1          8           0        0.000000    0.117510    0.000000
      2          1           0        0.797362   -0.500790    0.000000
      3          1           0       -0.937111   -0.256528    0.000000
 ---------------------------------------------------------------------
                    Distance matrix (angstroms):
                    1          2          3
     1  O    0.000000
     2  H    1.009000   0.000000
     3  H    1.009000   1.751588   0.000000
 Stoichiometry    H2O
 Framework group  C2V[C2(O),SGV(H2)]
 Deg. of freedom     2
 Full point group                 C2V     NOp   4
 Largest Abelian subgroup         C2V     NOp   4
 Largest concise Abelian subgroup C2      NOp   2
                         Standard orientation:                         
 ---------------------------------------------------------------------
 Center     Atomic      Atomic             Coordinates (Angstroms)
 Number     Number       Type             X           Y           Z
 ---------------------------------------------------------------------
      1          8           0        0.000000    0.000000    0.100213
      2          1           0        0.000000    0.875794   -0.400852
      3          1           0       -0.000000   -0.875794   -0.400852
 ---------------------------------------------------------------------
 Rotational constants (GHZ):        1124.5012892         326.8873193         253.2645012
 Leave Link  202 at Mon Feb 20 10:29:39 2023, MaxMem=   754974720 cpu:               0.1 elap:               0.0
 (Enter /opt/cluster/programs/g16-c.01/g16/l301.exe)
 Standard basis: Aug-CC-pVDZ (5D, 7F)
 Ernie: Thresh=  0.10000D-02 Tol=  0.10000D-05 Strict=F.
 Ernie:  2 primitive shells out of 39 were deleted.
 There are    20 symmetry adapted cartesian basis functions of A1  symmetry.
 There are     4 symmetry adapted cartesian basis functions of A2  symmetry.
 There are     7 symmetry adapted cartesian basis functions of B1  symmetry.
 There are    12 symmetry adapted cartesian basis functions of B2  symmetry.
 There are    18 symmetry adapted basis functions of A1  symmetry.
 There are     4 symmetry adapted basis functions of A2  symmetry.
 There are     7 symmetry adapted basis functions of B1  symmetry.
 There are    12 symmetry adapted basis functions of B2  symmetry.
    41 basis functions,    65 primitive gaussians,    43 cartesian basis functions
     5 alpha electrons        5 beta electrons
       nuclear repulsion energy         8.6934263651 Hartrees.
 IExCor=    0 DFT=F Ex=HF Corr=None ExCW=0 ScaHFX=  1.000000
 ScaDFX=  1.000000  1.000000  1.000000  1.000000 ScalE2=  1.000000  1.000000
 IRadAn=      5 IRanWt=     -1 IRanGd=            0 ICorTp=0 IEmpDi=  4
 NAtoms=    3 NActive=    3 NUniq=    2 SFac= 2.25D+00 NAtFMM=   60 NAOKFM=F Big=F
 Integral buffers will be    131072 words long.
 Raffenetti 1 integral format.
 Two-electron integral symmetry is turned on.
 Leave Link  301 at Mon Feb 20 10:29:39 2023, MaxMem=   754974720 cpu:               0.2 elap:               0.1
 (Enter /opt/cluster/programs/g16-c.01/g16/l302.exe)
 NPDir=0 NMtPBC=     1 NCelOv=     1 NCel=       1 NClECP=     1 NCelD=      1
         NCelK=      1 NCelE2=     1 NClLst=     1 CellRange=     0.0.
 One-electron integrals computed using PRISM.
 One-electron integral symmetry used in STVInt
 NBasis=    41 RedAO= T EigKep=  3.22D-03  NBF=    18     4     7    12
 NBsUse=    41 1.00D-06 EigRej= -1.00D+00 NBFU=    18     4     7    12
 Leave Link  302 at Mon Feb 20 10:29:39 2023, MaxMem=   754974720 cpu:               1.6 elap:               0.8
 (Enter /opt/cluster/programs/g16-c.01/g16/l303.exe)
 DipDrv:  MaxL=1.
 Leave Link  303 at Mon Feb 20 10:29:40 2023, MaxMem=   754974720 cpu:               0.5 elap:               0.3
 (Enter /opt/cluster/programs/g16-c.01/g16/l401.exe)
 ExpMin= 2.97D-02 ExpMax= 1.17D+04 ExpMxC= 4.01D+02 IAcc=3 IRadAn=         5 AccDes= 0.00D+00
 Harris functional with IExCor=  205 and IRadAn=       5 diagonalized for initial guess.
 HarFok:  IExCor=  205 AccDes= 0.00D+00 IRadAn=         5 IDoV= 1 UseB2=F ITyADJ=14
 ICtDFT=  3500011 ScaDFX=  1.000000  1.000000  1.000000  1.000000
 FoFCou: FMM=F IPFlag=           0 FMFlag=      100000 FMFlg1=           0
         NFxFlg=           0 DoJE=T BraDBF=F KetDBF=T FulRan=T
         wScrn=  0.000000 ICntrl=       500 IOpCl=  0 I1Cent=   200000004 NGrid=           0
         NMat0=    1 NMatS0=      1 NMatT0=    0 NMatD0=    1 NMtDS0=    0 NMtDT0=    0
 Petite list used in FoFCou.
 Harris En= -76.1159015598988    
 JPrj=0 DoOrth=F DoCkMO=F.
 Initial guess orbital symmetries:
       Occupied  (A1) (A1) (B2) (A1) (B1)
       Virtual   (A1) (B2) (A1) (B1) (A1) (B2) (B2) (A1) (A2) (A1)
                 (B1) (B2) (A1) (B2) (B2) (A1) (B1) (A1) (A2) (A1)
                 (B1) (B2) (A1) (B2) (B1) (A2) (B2) (A1) (A1) (B2)
                 (A1) (B1) (A1) (A2) (A1) (B2)
 The electronic state of the initial guess is 1-A1.
 Leave Link  401 at Mon Feb 20 10:29:40 2023, MaxMem=   754974720 cpu:               1.0 elap:               0.3
 (Enter /opt/cluster/programs/g16-c.01/g16/l502.exe)
 Keep R1 ints in memory in symmetry-blocked form, NReq=1211474.
 FoFCou: FMM=F IPFlag=           0 FMFlag=           0 FMFlg1=           0
         NFxFlg=           0 DoJE=F BraDBF=F KetDBF=F FulRan=T
         wScrn=  0.000000 ICntrl=       600 IOpCl=  0 I1Cent=           0 NGrid=           0
         NMat0=    1 NMatS0=    861 NMatT0=    0 NMatD0=    1 NMtDS0=    0 NMtDT0=    0
 Petite list used in FoFCou.
 Closed shell SCF:
 Using DIIS extrapolation, IDIIS=  1040.
 NGot=   754974720 LenX=   754868251 LenY=   754865961
 Requested convergence on RMS density matrix=1.00D-08 within 200 cycles.
 Requested convergence on MAX density matrix=1.00D-06.
 Requested convergence on             energy=1.00D-06.
 No special actions if energy rises.

 Cycle   1  Pass 1  IDiag  1:
 E= -75.9532754495581    
 DIIS: error= 4.99D-02 at cycle   1 NSaved=   1.
 NSaved= 1 IEnMin= 1 EnMin= -75.9532754495581     IErMin= 1 ErrMin= 4.99D-02
 ErrMax= 4.99D-02  0.00D+00 EMaxC= 1.00D-01 BMatC= 1.12D-01 BMatP= 1.12D-01
 IDIUse=3 WtCom= 5.01D-01 WtEn= 4.99D-01
 Coeff-Com:  0.100D+01
 Coeff-En:   0.100D+01
 Coeff:      0.100D+01
 Gap=     0.457 Goal=   None    Shift=    0.000
 GapD=    0.457 DampG=2.000 DampE=0.500 DampFc=1.0000 IDamp=-1.
 RMSDP=6.13D-03 MaxDP=1.16D-01              OVMax= 1.20D-01

 Cycle   2  Pass 1  IDiag  1:
 E= -75.9938365808188     Delta-E=       -0.040561131261 Rises=F Damp=F
 DIIS: error= 4.12D-02 at cycle   2 NSaved=   2.
 NSaved= 2 IEnMin= 2 EnMin= -75.9938365808188     IErMin= 2 ErrMin= 4.12D-02
 ErrMax= 4.12D-02  0.00D+00 EMaxC= 1.00D-01 BMatC= 4.65D-02 BMatP= 1.12D-01
 IDIUse=3 WtCom= 5.88D-01 WtEn= 4.12D-01
 Coeff-Com:  0.381D+00 0.619D+00
 Coeff-En:   0.240D+00 0.760D+00
 Coeff:      0.323D+00 0.677D+00
 Gap=     0.551 Goal=   None    Shift=    0.000
 RMSDP=2.94D-03 MaxDP=5.48D-02 DE=-4.06D-02 OVMax= 5.99D-02

 Cycle   3  Pass 1  IDiag  1:
 E= -76.0263486983253     Delta-E=       -0.032512117506 Rises=F Damp=F
 DIIS: error= 4.71D-03 at cycle   3 NSaved=   3.
 NSaved= 3 IEnMin= 3 EnMin= -76.0263486983253     IErMin= 3 ErrMin= 4.71D-03
 ErrMax= 4.71D-03  0.00D+00 EMaxC= 1.00D-01 BMatC= 1.11D-03 BMatP= 4.65D-02
 IDIUse=3 WtCom= 9.53D-01 WtEn= 4.71D-02
 Coeff-Com: -0.379D-01 0.897D-01 0.948D+00
 Coeff-En:   0.000D+00 0.000D+00 0.100D+01
 Coeff:     -0.361D-01 0.855D-01 0.951D+00
 Gap=     0.533 Goal=   None    Shift=    0.000
 RMSDP=4.68D-04 MaxDP=8.11D-03 DE=-3.25D-02 OVMax= 9.43D-03

 Cycle   4  Pass 1  IDiag  1:
 E= -76.0272193595866     Delta-E=       -0.000870661261 Rises=F Damp=F
 DIIS: error= 7.22D-04 at cycle   4 NSaved=   4.
 NSaved= 4 IEnMin= 4 EnMin= -76.0272193595866     IErMin= 4 ErrMin= 7.22D-04
 ErrMax= 7.22D-04  0.00D+00 EMaxC= 1.00D-01 BMatC= 9.42D-06 BMatP= 1.11D-03
 IDIUse=3 WtCom= 9.93D-01 WtEn= 7.22D-03
 Coeff-Com:  0.806D-02-0.425D-01-0.321D+00 0.136D+01
 Coeff-En:   0.000D+00 0.000D+00 0.000D+00 0.100D+01
 Coeff:      0.800D-02-0.422D-01-0.319D+00 0.135D+01
 Gap=     0.535 Goal=   None    Shift=    0.000
 RMSDP=1.31D-04 MaxDP=1.35D-03 DE=-8.71D-04 OVMax= 2.73D-03

 Cycle   5  Pass 1  IDiag  1:
 E= -76.0272440060173     Delta-E=       -0.000024646431 Rises=F Damp=F
 DIIS: error= 2.08D-04 at cycle   5 NSaved=   5.
 NSaved= 5 IEnMin= 5 EnMin= -76.0272440060173     IErMin= 5 ErrMin= 2.08D-04
 ErrMax= 2.08D-04  0.00D+00 EMaxC= 1.00D-01 BMatC= 4.97D-07 BMatP= 9.42D-06
 IDIUse=3 WtCom= 9.98D-01 WtEn= 2.08D-03
 Coeff-Com:  0.566D-03 0.170D-02 0.752D-02-0.261D+00 0.125D+01
 Coeff-En:   0.000D+00 0.000D+00 0.000D+00 0.000D+00 0.100D+01
 Coeff:      0.565D-03 0.170D-02 0.750D-02-0.260D+00 0.125D+01
 Gap=     0.535 Goal=   None    Shift=    0.000
 RMSDP=3.63D-05 MaxDP=4.72D-04 DE=-2.46D-05 OVMax= 8.46D-04

 Cycle   6  Pass 1  IDiag  1:
 E= -76.0272456819439     Delta-E=       -0.000001675927 Rises=F Damp=F
 DIIS: error= 4.33D-05 at cycle   6 NSaved=   6.
 NSaved= 6 IEnMin= 6 EnMin= -76.0272456819439     IErMin= 6 ErrMin= 4.33D-05
 ErrMax= 4.33D-05  0.00D+00 EMaxC= 1.00D-01 BMatC= 2.23D-08 BMatP= 4.97D-07
 IDIUse=1 WtCom= 1.00D+00 WtEn= 0.00D+00
 Coeff-Com: -0.474D-03 0.161D-02 0.139D-01-0.165D-01-0.272D+00 0.127D+01
 Coeff:     -0.474D-03 0.161D-02 0.139D-01-0.165D-01-0.272D+00 0.127D+01
 Gap=     0.535 Goal=   None    Shift=    0.000
 RMSDP=7.14D-06 MaxDP=1.21D-04 DE=-1.68D-06 OVMax= 2.05D-04

 Cycle   7  Pass 1  IDiag  1:
 E= -76.0272457595022     Delta-E=       -0.000000077558 Rises=F Damp=F
 DIIS: error= 9.11D-06 at cycle   7 NSaved=   7.
 NSaved= 7 IEnMin= 7 EnMin= -76.0272457595022     IErMin= 7 ErrMin= 9.11D-06
 ErrMax= 9.11D-06  0.00D+00 EMaxC= 1.00D-01 BMatC= 1.13D-09 BMatP= 2.23D-08
 IDIUse=1 WtCom= 1.00D+00 WtEn= 0.00D+00
 Coeff-Com:  0.187D-03-0.813D-03-0.692D-02 0.220D-01 0.607D-01-0.552D+00
 Coeff-Com:  0.148D+01
 Coeff:      0.187D-03-0.813D-03-0.692D-02 0.220D-01 0.607D-01-0.552D+00
 Coeff:      0.148D+01
 Gap=     0.535 Goal=   None    Shift=    0.000
 RMSDP=1.47D-06 MaxDP=3.11D-05 DE=-7.76D-08 OVMax= 4.53D-05

 Cycle   8  Pass 1  IDiag  1:
 E= -76.0272457629741     Delta-E=       -0.000000003472 Rises=F Damp=F
 DIIS: error= 1.39D-06 at cycle   8 NSaved=   8.
 NSaved= 8 IEnMin= 8 EnMin= -76.0272457629741     IErMin= 8 ErrMin= 1.39D-06
 ErrMax= 1.39D-06  0.00D+00 EMaxC= 1.00D-01 BMatC= 3.09D-11 BMatP= 1.13D-09
 IDIUse=1 WtCom= 1.00D+00 WtEn= 0.00D+00
 Coeff-Com: -0.383D-04 0.183D-03 0.164D-02-0.679D-02-0.678D-02 0.124D+00
 Coeff-Com: -0.463D+00 0.135D+01
 Coeff:     -0.383D-04 0.183D-03 0.164D-02-0.679D-02-0.678D-02 0.124D+00
 Coeff:     -0.463D+00 0.135D+01
 Gap=     0.535 Goal=   None    Shift=    0.000
 RMSDP=2.78D-07 MaxDP=3.69D-06 DE=-3.47D-09 OVMax= 5.30D-06

 Cycle   9  Pass 1  IDiag  1:
 E= -76.0272457630464     Delta-E=       -0.000000000072 Rises=F Damp=F
 DIIS: error= 1.58D-07 at cycle   9 NSaved=   9.
 NSaved= 9 IEnMin= 9 EnMin= -76.0272457630464     IErMin= 9 ErrMin= 1.58D-07
 ErrMax= 1.58D-07  0.00D+00 EMaxC= 1.00D-01 BMatC= 3.82D-13 BMatP= 3.09D-11
 IDIUse=1 WtCom= 1.00D+00 WtEn= 0.00D+00
 Coeff-Com:  0.495D-05-0.246D-04-0.240D-03 0.116D-02 0.556D-03-0.193D-01
 Coeff-Com:  0.859D-01-0.335D+00 0.127D+01
 Coeff:      0.495D-05-0.246D-04-0.240D-03 0.116D-02 0.556D-03-0.193D-01
 Coeff:      0.859D-01-0.335D+00 0.127D+01
 Gap=     0.535 Goal=   None    Shift=    0.000
 RMSDP=2.85D-08 MaxDP=3.02D-07 DE=-7.23D-11 OVMax= 4.71D-07

 Cycle  10  Pass 1  IDiag  1:
 E= -76.0272457630474     Delta-E=       -0.000000000001 Rises=F Damp=F
 DIIS: error= 3.14D-08 at cycle  10 NSaved=  10.
 NSaved=10 IEnMin=10 EnMin= -76.0272457630474     IErMin=10 ErrMin= 3.14D-08
 ErrMax= 3.14D-08  0.00D+00 EMaxC= 1.00D-01 BMatC= 2.25D-14 BMatP= 3.82D-13
 IDIUse=1 WtCom= 1.00D+00 WtEn= 0.00D+00
 Coeff-Com: -0.348D-06 0.203D-05 0.281D-04-0.206D-03 0.190D-03 0.224D-02
 Coeff-Com: -0.141D-01 0.699D-01-0.448D+00 0.139D+01
 Coeff:     -0.348D-06 0.203D-05 0.281D-04-0.206D-03 0.190D-03 0.224D-02
 Coeff:     -0.141D-01 0.699D-01-0.448D+00 0.139D+01
 Gap=     0.535 Goal=   None    Shift=    0.000
 RMSDP=7.35D-09 MaxDP=6.16D-08 DE=-9.66D-13 OVMax= 1.71D-07

 SCF Done:  E(RHF) =  -76.0272457630     A.U. after   10 cycles
            NFock= 10  Conv=0.74D-08     -V/T= 2.0041
 KE= 7.571721957710D+01 PE=-1.978370728604D+02 EE= 3.739918115516D+01
 Leave Link  502 at Mon Feb 20 10:29:43 2023, MaxMem=   754974720 cpu:               6.2 elap:               3.1
 (Enter /opt/cluster/programs/g16-c.01/g16/l601.exe)
 Copying SCF densities to generalized density rwf, IOpCl= 0 IROHF=0.

 **********************************************************************

            Population analysis using the SCF Density.

 **********************************************************************

 Orbital symmetries:
       Occupied  (A1) (A1) (B2) (A1) (B1)
       Virtual   (A1) (B2) (A1) (B1) (A1) (B2) (B2) (A1) (A2) (A1)
                 (B1) (B2) (A1) (B2) (B2) (A1) (B1) (A1) (A2) (A1)
                 (B2) (B1) (A1) (B2) (B1) (A2) (B2) (A1) (A1) (B2)
                 (A1) (B1) (A1) (A2) (A1) (B2)
 The electronic state is 1-A1.
 Alpha  occ. eigenvalues --  -20.57672  -1.32158  -0.71670  -0.54588  -0.49987
 Alpha virt. eigenvalues --    0.03535   0.05619   0.17693   0.19784   0.21160
 Alpha virt. eigenvalues --    0.22710   0.28935   0.30381   0.37298   0.42974
 Alpha virt. eigenvalues --    0.45145   0.51364   0.63434   0.64957   0.83600
 Alpha virt. eigenvalues --    0.85793   1.08471   1.08918   1.14552   1.39933
 Alpha virt. eigenvalues --    1.45728   1.48389   1.56090   1.95004   2.01840
 Alpha virt. eigenvalues --    2.05083   2.37853   2.38375   2.51061   2.72762
 Alpha virt. eigenvalues --    2.86201   3.65584   3.66359   3.69879   4.10468
 Alpha virt. eigenvalues --    4.13608
          Condensed to atoms (all electrons):
               1          2          3
     1  O    7.814968   0.321341   0.321341
     2  H    0.321341   0.482276  -0.032442
     3  H    0.321341  -0.032442   0.482276
 Mulliken charges:
               1
     1  O   -0.457650
     2  H    0.228825
     3  H    0.228825
 Sum of Mulliken charges =  -0.00000
 Mulliken charges with hydrogens summed into heavy atoms:
               1
     1  O   -0.000000
 Electronic spatial extent (au):  <R**2>=             20.2543
 Charge=             -0.0000 electrons
 Dipole moment (field-independent basis, Debye):
    X=             -0.0000    Y=              0.0000    Z=             -1.7447  Tot=              1.7447
 Quadrupole moment (field-independent basis, Debye-Ang):
   XX=             -7.7496   YY=             -3.3918   ZZ=             -6.8035
   XY=              0.0000   XZ=              0.0000   YZ=             -0.0000
 Traceless Quadrupole moment (field-independent basis, Debye-Ang):
   XX=             -1.7679   YY=              2.5898   ZZ=             -0.8219
   XY=              0.0000   XZ=              0.0000   YZ=             -0.0000
 Octapole moment (field-independent basis, Debye-Ang**2):
  XXX=              0.0000  YYY=              0.0000  ZZZ=             -0.8467  XYY=             -0.0000
  XXY=             -0.0000  XXZ=             -0.2208  XZZ=              0.0000  YZZ=              0.0000
  YYZ=             -1.5282  XYZ=             -0.0000
 Hexadecapole moment (field-independent basis, Debye-Ang**3):
 XXXX=             -7.1328 YYYY=             -5.6154 ZZZZ=             -7.6900 XXXY=             -0.0000
 XXXZ=             -0.0000 YYYX=              0.0000 YYYZ=             -0.0000 ZZZX=             -0.0000
 ZZZY=             -0.0000 XXYY=             -2.7131 XXZZ=             -2.4990 YYZZ=             -2.1680
 XXYZ=             -0.0000 YYXZ=              0.0000 ZZXY=             -0.0000
 N-N= 8.693426365107D+00 E-N=-1.978370731774D+02  KE= 7.571721957710D+01
 Symmetry A1   KE= 6.790607962291D+01
 Symmetry A2   KE= 7.278102900997D-34
 Symmetry B1   KE= 4.428391884016D+00
 Symmetry B2   KE= 3.382748070172D+00
 No NMR shielding tensors so no spin-rotation constants.
 Leave Link  601 at Mon Feb 20 10:29:44 2023, MaxMem=   754974720 cpu:               0.9 elap:               0.4
 (Enter /opt/cluster/programs/g16-c.01/g16/l9999.exe)
 Unable to Open any file for archive entry.
 1\1\GINC-NODE105\SP\RHF\Aug-CC-pVDZ\H2O1\BOITTIER\20-Feb-2023\0\\#P HF
 /aug-cc-pVDZ scf(maxcycle=200)\\Gaussian input\\0,1\O,0,0.,0.11751,0.\
 H,0,0.7973622306,-0.5007896629,0.\H,0,-0.9371108881,-0.2565276764,0.\\
 Version=ES64L-G16RevC.01\State=1-A1\HF=-76.0272458\RMSD=7.352e-09\Dipo
 le=-0.0957234,-0.6797195,0.\Quadrupole=1.8761366,-0.5617177,-1.3144189
 ,-0.3502642,0.,0.\PG=C02V [C2(O1),SGV(H2)]\\@
 The archive entry for this job was punched.


 Until you make peace with who you are,
 you'll never be content with what you have.
                           -- Doris Mortman
 Job cpu time:       0 days  0 hours  0 minutes 12.1 seconds.
 Elapsed time:       0 days  0 hours  0 minutes  5.8 seconds.
 File lengths (MBytes):  RWF=      6 Int=      0 D2E=      0 Chk=      1 Scr=      1
 Normal termination of Gaussian 16 at Mon Feb 20 10:29:44 2023.
