 Entering Gaussian System, Link 0=/opt/cluster/programs/g16-c.01/g16/g16
 Input=/scratch/boittier/jobs/tmp.7262418/gaussian_176_water_ccsdt_adz.com
 Output=/scratch/boittier/jobs/tmp.7262418/gaussian_176_water_ccsdt_adz.out
 Initial command:
 /opt/cluster/programs/g16-c.01/g16/l1.exe "/scratch/boittier/jobs/tmp.7262418/Gau-14986.inp" -scrdir="/scratch/boittier/jobs/tmp.7262418/"
 Entering Link 1 = /opt/cluster/programs/g16-c.01/g16/l1.exe PID=     14987.
  
 Copyright (c) 1988-2019, Gaussian, Inc.  All Rights Reserved.
  
 This is part of the Gaussian(R) 16 program.  It is based on
 the Gaussian(R) 09 system (copyright 2009, Gaussian, Inc.),
 the Gaussian(R) 03 system (copyright 2003, Gaussian, Inc.),
 the Gaussian(R) 98 system (copyright 1998, Gaussian, Inc.),
 the Gaussian(R) 94 system (copyright 1995, Gaussian, Inc.),
 the Gaussian 92(TM) system (copyright 1992, Gaussian, Inc.),
 the Gaussian 90(TM) system (copyright 1990, Gaussian, Inc.),
 the Gaussian 88(TM) system (copyright 1988, Gaussian, Inc.),
 the Gaussian 86(TM) system (copyright 1986, Carnegie Mellon
 University), and the Gaussian 82(TM) system (copyright 1983,
 Carnegie Mellon University). Gaussian is a federally registered
 trademark of Gaussian, Inc.
  
 This software contains proprietary and confidential information,
 including trade secrets, belonging to Gaussian, Inc.
  
 This software is provided under written license and may be
 used, copied, transmitted, or stored only in accord with that
 written license.
  
 The following legend is applicable only to US Government
 contracts under FAR:
  
                    RESTRICTED RIGHTS LEGEND
  
 Use, reproduction and disclosure by the US Government is
 subject to restrictions as set forth in subparagraphs (a)
 and (c) of the Commercial Computer Software - Restricted
 Rights clause in FAR 52.227-19.
  
 Gaussian, Inc.
 340 Quinnipiac St., Bldg. 40, Wallingford CT 06492
  
  
 ---------------------------------------------------------------
 Warning -- This program may not be used in any manner that
 competes with the business of Gaussian, Inc. or will provide
 assistance to any competitor of Gaussian, Inc.  The licensee
 of this program is prohibited from giving any competitor of
 Gaussian, Inc. access to this program.  By using this program,
 the user acknowledges that Gaussian, Inc. is engaged in the
 business of creating and licensing software in the field of
 computational chemistry and represents and warrants to the
 licensee that it is not a competitor of Gaussian, Inc. and that
 it will not use this program in any manner prohibited above.
 ---------------------------------------------------------------
  

 Cite this work as:
 Gaussian 16, Revision C.01,
 M. J. Frisch, G. W. Trucks, H. B. Schlegel, G. E. Scuseria, 
 M. A. Robb, J. R. Cheeseman, G. Scalmani, V. Barone, 
 G. A. Petersson, H. Nakatsuji, X. Li, M. Caricato, A. V. Marenich, 
 J. Bloino, B. G. Janesko, R. Gomperts, B. Mennucci, H. P. Hratchian, 
 J. V. Ortiz, A. F. Izmaylov, J. L. Sonnenberg, D. Williams-Young, 
 F. Ding, F. Lipparini, F. Egidi, J. Goings, B. Peng, A. Petrone, 
 T. Henderson, D. Ranasinghe, V. G. Zakrzewski, J. Gao, N. Rega, 
 G. Zheng, W. Liang, M. Hada, M. Ehara, K. Toyota, R. Fukuda, 
 J. Hasegawa, M. Ishida, T. Nakajima, Y. Honda, O. Kitao, H. Nakai, 
 T. Vreven, K. Throssell, J. A. Montgomery, Jr., J. E. Peralta, 
 F. Ogliaro, M. J. Bearpark, J. J. Heyd, E. N. Brothers, K. N. Kudin, 
 V. N. Staroverov, T. A. Keith, R. Kobayashi, J. Normand, 
 K. Raghavachari, A. P. Rendell, J. C. Burant, S. S. Iyengar, 
 J. Tomasi, M. Cossi, J. M. Millam, M. Klene, C. Adamo, R. Cammi, 
 J. W. Ochterski, R. L. Martin, K. Morokuma, O. Farkas, 
 J. B. Foresman, and D. J. Fox, Gaussian, Inc., Wallingford CT, 2019.
 
 ******************************************
 Gaussian 16:  ES64L-G16RevC.01  3-Jul-2019
                 8-Feb-2023 
 ******************************************
 %nproc=4
 Will use up to    4 processors via shared memory.
 %mem=5760MB
 %chk=gaussian_176_water_ccsdt_adz.chk
 ----------------------------------------
 #P CCSD(T)/aug-cc-pVDZ scf(maxcycle=200)
 ----------------------------------------
 1/38=1,172=1/1;
 2/12=2,17=6,18=5,40=1/2;
 3/5=16,7=10,11=9,25=1,30=1/1,2,3;
 4//1;
 5/5=2,7=200,38=5/2;
 8/6=4,9=120000,10=1/1,4;
 9/5=7,14=2/13;
 6/7=2,8=2,9=2,10=2/1;
 99/5=1,9=1/99;
 Leave Link    1 at Wed Feb  8 14:51:20 2023, MaxMem=   754974720 cpu:               0.1 elap:               0.0
 (Enter /opt/cluster/programs/g16-c.01/g16/l101.exe)
 --------------
 Gaussian input
 --------------
 Symbolic Z-matrix:
 Charge =  0 Multiplicity = 1
 O                     0.        0.11751   0. 
 H                     0.79736  -0.50079   0. 
 H                    -0.90874  -0.32099   0. 
 
 ITRead=  0  0  0
 MicOpt= -1 -1 -1
 NAtoms=      3 NQM=        3 NQMF=       0 NMMI=      0 NMMIF=      0
                NMic=       0 NMicF=      0.
                    Isotopes and Nuclear Properties:
 (Nuclear quadrupole moments (NQMom) in fm**2, nuclear magnetic moments (NMagM)
  in nuclear magnetons)

  Atom         1           2           3
 IAtWgt=          16           1           1
 AtmWgt=  15.9949146   1.0078250   1.0078250
 NucSpn=           0           1           1
 AtZEff=  -0.0000000  -0.0000000  -0.0000000
 NQMom=    0.0000000   0.0000000   0.0000000
 NMagM=    0.0000000   2.7928460   2.7928460
 AtZNuc=   8.0000000   1.0000000   1.0000000
 Leave Link  101 at Wed Feb  8 14:51:20 2023, MaxMem=   754974720 cpu:               0.7 elap:               0.2
 (Enter /opt/cluster/programs/g16-c.01/g16/l202.exe)
                          Input orientation:                          
 ---------------------------------------------------------------------
 Center     Atomic      Atomic             Coordinates (Angstroms)
 Number     Number       Type             X           Y           Z
 ---------------------------------------------------------------------
      1          8           0        0.000000    0.117510    0.000000
      2          1           0        0.797362   -0.500790    0.000000
      3          1           0       -0.908737   -0.320986    0.000000
 ---------------------------------------------------------------------
                    Distance matrix (angstroms):
                    1          2          3
     1  O    0.000000
     2  H    1.009000   0.000000
     3  H    1.009000   1.715547   0.000000
 Stoichiometry    H2O
 Framework group  C2V[C2(O),SGV(H2)]
 Deg. of freedom     2
 Full point group                 C2V     NOp   4
 Largest Abelian subgroup         C2V     NOp   4
 Largest concise Abelian subgroup C2      NOp   2
                         Standard orientation:                         
 ---------------------------------------------------------------------
 Center     Atomic      Atomic             Coordinates (Angstroms)
 Number     Number       Type             X           Y           Z
 ---------------------------------------------------------------------
      1          8           0       -0.000000   -0.000000    0.106265
      2          1           0       -0.000000    0.857774   -0.425059
      3          1           0       -0.000000   -0.857774   -0.425059
 ---------------------------------------------------------------------
 Rotational constants (GHZ):        1000.0651951         340.7663215         254.1620879
 Leave Link  202 at Wed Feb  8 14:51:20 2023, MaxMem=   754974720 cpu:               0.1 elap:               0.0
 (Enter /opt/cluster/programs/g16-c.01/g16/l301.exe)
 Standard basis: Aug-CC-pVDZ (5D, 7F)
 Ernie: Thresh=  0.10000D-02 Tol=  0.10000D-05 Strict=F.
 Ernie:  2 primitive shells out of 39 were deleted.
 There are    20 symmetry adapted cartesian basis functions of A1  symmetry.
 There are     4 symmetry adapted cartesian basis functions of A2  symmetry.
 There are     7 symmetry adapted cartesian basis functions of B1  symmetry.
 There are    12 symmetry adapted cartesian basis functions of B2  symmetry.
 There are    18 symmetry adapted basis functions of A1  symmetry.
 There are     4 symmetry adapted basis functions of A2  symmetry.
 There are     7 symmetry adapted basis functions of B1  symmetry.
 There are    12 symmetry adapted basis functions of B2  symmetry.
    41 basis functions,    65 primitive gaussians,    43 cartesian basis functions
     5 alpha electrons        5 beta electrons
       nuclear repulsion energy         8.6997732585 Hartrees.
 IExCor=    0 DFT=F Ex=HF Corr=None ExCW=0 ScaHFX=  1.000000
 ScaDFX=  1.000000  1.000000  1.000000  1.000000 ScalE2=  1.000000  1.000000
 IRadAn=      5 IRanWt=     -1 IRanGd=            0 ICorTp=0 IEmpDi=  4
 NAtoms=    3 NActive=    3 NUniq=    2 SFac= 2.25D+00 NAtFMM=   60 NAOKFM=F Big=F
 Integral buffers will be    131072 words long.
 Raffenetti 1 integral format.
 Two-electron integral symmetry is turned on.
 Leave Link  301 at Wed Feb  8 14:51:20 2023, MaxMem=   754974720 cpu:               0.1 elap:               0.0
 (Enter /opt/cluster/programs/g16-c.01/g16/l302.exe)
 NPDir=0 NMtPBC=     1 NCelOv=     1 NCel=       1 NClECP=     1 NCelD=      1
         NCelK=      1 NCelE2=     1 NClLst=     1 CellRange=     0.0.
 One-electron integrals computed using PRISM.
 One-electron integral symmetry used in STVInt
 NBasis=    41 RedAO= T EigKep=  3.23D-03  NBF=    18     4     7    12
 NBsUse=    41 1.00D-06 EigRej= -1.00D+00 NBFU=    18     4     7    12
 Leave Link  302 at Wed Feb  8 14:51:20 2023, MaxMem=   754974720 cpu:               0.4 elap:               0.1
 (Enter /opt/cluster/programs/g16-c.01/g16/l303.exe)
 DipDrv:  MaxL=1.
 Leave Link  303 at Wed Feb  8 14:51:20 2023, MaxMem=   754974720 cpu:               0.2 elap:               0.1
 (Enter /opt/cluster/programs/g16-c.01/g16/l401.exe)
 ExpMin= 2.97D-02 ExpMax= 1.17D+04 ExpMxC= 4.01D+02 IAcc=3 IRadAn=         5 AccDes= 0.00D+00
 Harris functional with IExCor=  205 and IRadAn=       5 diagonalized for initial guess.
 HarFok:  IExCor=  205 AccDes= 0.00D+00 IRadAn=         5 IDoV= 1 UseB2=F ITyADJ=14
 ICtDFT=  3500011 ScaDFX=  1.000000  1.000000  1.000000  1.000000
 FoFCou: FMM=F IPFlag=           0 FMFlag=      100000 FMFlg1=           0
         NFxFlg=           0 DoJE=T BraDBF=F KetDBF=T FulRan=T
         wScrn=  0.000000 ICntrl=       500 IOpCl=  0 I1Cent=   200000004 NGrid=           0
         NMat0=    1 NMatS0=      1 NMatT0=    0 NMatD0=    1 NMtDS0=    0 NMtDT0=    0
 Petite list used in FoFCou.
 Harris En= -76.1174138343239    
 JPrj=0 DoOrth=F DoCkMO=F.
 Initial guess orbital symmetries:
       Occupied  (A1) (A1) (B2) (A1) (B1)
       Virtual   (A1) (B2) (A1) (B1) (A1) (B2) (B2) (A1) (A2) (A1)
                 (B1) (B2) (A1) (B2) (B2) (A1) (B1) (A1) (A2) (A1)
                 (B1) (B2) (A1) (B2) (A2) (B1) (B2) (A1) (A1) (B2)
                 (A1) (B1) (A1) (A2) (A1) (B2)
 The electronic state of the initial guess is 1-A1.
 Leave Link  401 at Wed Feb  8 14:51:21 2023, MaxMem=   754974720 cpu:               0.5 elap:               0.1
 (Enter /opt/cluster/programs/g16-c.01/g16/l502.exe)
 Keep R1 ints in memory in symmetry-blocked form, NReq=1211474.
 FoFCou: FMM=F IPFlag=           0 FMFlag=           0 FMFlg1=           0
         NFxFlg=           0 DoJE=F BraDBF=F KetDBF=F FulRan=T
         wScrn=  0.000000 ICntrl=       600 IOpCl=  0 I1Cent=           0 NGrid=           0
         NMat0=    1 NMatS0=    861 NMatT0=    0 NMatD0=    1 NMtDS0=    0 NMtDT0=    0
 Petite list used in FoFCou.
 Closed shell SCF:
 Using DIIS extrapolation, IDIIS=  1040.
 NGot=   754974720 LenX=   754868251 LenY=   754865961
 Requested convergence on RMS density matrix=1.00D-08 within 200 cycles.
 Requested convergence on MAX density matrix=1.00D-06.
 Requested convergence on             energy=1.00D-06.
 No special actions if energy rises.

 Cycle   1  Pass 1  IDiag  1:
 E= -75.9565564798801    
 DIIS: error= 4.95D-02 at cycle   1 NSaved=   1.
 NSaved= 1 IEnMin= 1 EnMin= -75.9565564798801     IErMin= 1 ErrMin= 4.95D-02
 ErrMax= 4.95D-02  0.00D+00 EMaxC= 1.00D-01 BMatC= 1.11D-01 BMatP= 1.11D-01
 IDIUse=3 WtCom= 5.05D-01 WtEn= 4.95D-01
 Coeff-Com:  0.100D+01
 Coeff-En:   0.100D+01
 Coeff:      0.100D+01
 Gap=     0.458 Goal=   None    Shift=    0.000
 GapD=    0.458 DampG=2.000 DampE=0.500 DampFc=1.0000 IDamp=-1.
 RMSDP=6.10D-03 MaxDP=1.15D-01              OVMax= 1.20D-01

 Cycle   2  Pass 1  IDiag  1:
 E= -75.9967460805553     Delta-E=       -0.040189600675 Rises=F Damp=F
 DIIS: error= 4.11D-02 at cycle   2 NSaved=   2.
 NSaved= 2 IEnMin= 2 EnMin= -75.9967460805553     IErMin= 2 ErrMin= 4.11D-02
 ErrMax= 4.11D-02  0.00D+00 EMaxC= 1.00D-01 BMatC= 4.61D-02 BMatP= 1.11D-01
 IDIUse=3 WtCom= 5.89D-01 WtEn= 4.11D-01
 Coeff-Com:  0.381D+00 0.619D+00
 Coeff-En:   0.240D+00 0.760D+00
 Coeff:      0.323D+00 0.677D+00
 Gap=     0.552 Goal=   None    Shift=    0.000
 RMSDP=2.93D-03 MaxDP=5.46D-02 DE=-4.02D-02 OVMax= 5.96D-02

 Cycle   3  Pass 1  IDiag  1:
 E= -76.0289959567068     Delta-E=       -0.032249876151 Rises=F Damp=F
 DIIS: error= 4.58D-03 at cycle   3 NSaved=   3.
 NSaved= 3 IEnMin= 3 EnMin= -76.0289959567068     IErMin= 3 ErrMin= 4.58D-03
 ErrMax= 4.58D-03  0.00D+00 EMaxC= 1.00D-01 BMatC= 1.10D-03 BMatP= 4.61D-02
 IDIUse=3 WtCom= 9.54D-01 WtEn= 4.58D-02
 Coeff-Com: -0.382D-01 0.894D-01 0.949D+00
 Coeff-En:   0.000D+00 0.000D+00 0.100D+01
 Coeff:     -0.364D-01 0.853D-01 0.951D+00
 Gap=     0.535 Goal=   None    Shift=    0.000
 RMSDP=4.66D-04 MaxDP=8.14D-03 DE=-3.22D-02 OVMax= 9.52D-03

 Cycle   4  Pass 1  IDiag  1:
 E= -76.0298622469437     Delta-E=       -0.000866290237 Rises=F Damp=F
 DIIS: error= 7.39D-04 at cycle   4 NSaved=   4.
 NSaved= 4 IEnMin= 4 EnMin= -76.0298622469437     IErMin= 4 ErrMin= 7.39D-04
 ErrMax= 7.39D-04  0.00D+00 EMaxC= 1.00D-01 BMatC= 9.42D-06 BMatP= 1.10D-03
 IDIUse=3 WtCom= 9.93D-01 WtEn= 7.39D-03
 Coeff-Com:  0.824D-02-0.426D-01-0.324D+00 0.136D+01
 Coeff-En:   0.000D+00 0.000D+00 0.000D+00 0.100D+01
 Coeff:      0.818D-02-0.423D-01-0.321D+00 0.136D+01
 Gap=     0.536 Goal=   None    Shift=    0.000
 RMSDP=1.29D-04 MaxDP=1.39D-03 DE=-8.66D-04 OVMax= 2.64D-03

 Cycle   5  Pass 1  IDiag  1:
 E= -76.0298867188414     Delta-E=       -0.000024471898 Rises=F Damp=F
 DIIS: error= 2.11D-04 at cycle   5 NSaved=   5.
 NSaved= 5 IEnMin= 5 EnMin= -76.0298867188414     IErMin= 5 ErrMin= 2.11D-04
 ErrMax= 2.11D-04  0.00D+00 EMaxC= 1.00D-01 BMatC= 4.80D-07 BMatP= 9.42D-06
 IDIUse=3 WtCom= 9.98D-01 WtEn= 2.11D-03
 Coeff-Com:  0.515D-03 0.182D-02 0.883D-02-0.257D+00 0.125D+01
 Coeff-En:   0.000D+00 0.000D+00 0.000D+00 0.000D+00 0.100D+01
 Coeff:      0.514D-03 0.182D-02 0.881D-02-0.257D+00 0.125D+01
 Gap=     0.536 Goal=   None    Shift=    0.000
 RMSDP=3.46D-05 MaxDP=4.76D-04 DE=-2.45D-05 OVMax= 7.81D-04

 Cycle   6  Pass 1  IDiag  1:
 E= -76.0298882989607     Delta-E=       -0.000001580119 Rises=F Damp=F
 DIIS: error= 4.37D-05 at cycle   6 NSaved=   6.
 NSaved= 6 IEnMin= 6 EnMin= -76.0298882989607     IErMin= 6 ErrMin= 4.37D-05
 ErrMax= 4.37D-05  0.00D+00 EMaxC= 1.00D-01 BMatC= 2.10D-08 BMatP= 4.80D-07
 IDIUse=1 WtCom= 1.00D+00 WtEn= 0.00D+00
 Coeff-Com: -0.463D-03 0.158D-02 0.135D-01-0.170D-01-0.268D+00 0.127D+01
 Coeff:     -0.463D-03 0.158D-02 0.135D-01-0.170D-01-0.268D+00 0.127D+01
 Gap=     0.537 Goal=   None    Shift=    0.000
 RMSDP=6.71D-06 MaxDP=1.22D-04 DE=-1.58D-06 OVMax= 1.86D-04

 Cycle   7  Pass 1  IDiag  1:
 E= -76.0298883704927     Delta-E=       -0.000000071532 Rises=F Damp=F
 DIIS: error= 8.67D-06 at cycle   7 NSaved=   7.
 NSaved= 7 IEnMin= 7 EnMin= -76.0298883704927     IErMin= 7 ErrMin= 8.67D-06
 ErrMax= 8.67D-06  0.00D+00 EMaxC= 1.00D-01 BMatC= 1.03D-09 BMatP= 2.10D-08
 IDIUse=1 WtCom= 1.00D+00 WtEn= 0.00D+00
 Coeff-Com:  0.178D-03-0.779D-03-0.661D-02 0.218D-01 0.548D-01-0.524D+00
 Coeff-Com:  0.145D+01
 Coeff:      0.178D-03-0.779D-03-0.661D-02 0.218D-01 0.548D-01-0.524D+00
 Coeff:      0.145D+01
 Gap=     0.537 Goal=   None    Shift=    0.000
 RMSDP=1.35D-06 MaxDP=2.84D-05 DE=-7.15D-08 OVMax= 4.11D-05

 Cycle   8  Pass 1  IDiag  1:
 E= -76.0298883735454     Delta-E=       -0.000000003053 Rises=F Damp=F
 DIIS: error= 1.31D-06 at cycle   8 NSaved=   8.
 NSaved= 8 IEnMin= 8 EnMin= -76.0298883735454     IErMin= 8 ErrMin= 1.31D-06
 ErrMax= 1.31D-06  0.00D+00 EMaxC= 1.00D-01 BMatC= 2.95D-11 BMatP= 1.03D-09
 IDIUse=1 WtCom= 1.00D+00 WtEn= 0.00D+00
 Coeff-Com: -0.378D-04 0.181D-03 0.162D-02-0.684D-02-0.575D-02 0.120D+00
 Coeff-Com: -0.472D+00 0.136D+01
 Coeff:     -0.378D-04 0.181D-03 0.162D-02-0.684D-02-0.575D-02 0.120D+00
 Coeff:     -0.472D+00 0.136D+01
 Gap=     0.537 Goal=   None    Shift=    0.000
 RMSDP=2.77D-07 MaxDP=3.72D-06 DE=-3.05D-09 OVMax= 5.30D-06

 Cycle   9  Pass 1  IDiag  1:
 E= -76.0298883736168     Delta-E=       -0.000000000071 Rises=F Damp=F
 DIIS: error= 1.54D-07 at cycle   9 NSaved=   9.
 NSaved= 9 IEnMin= 9 EnMin= -76.0298883736168     IErMin= 9 ErrMin= 1.54D-07
 ErrMax= 1.54D-07  0.00D+00 EMaxC= 1.00D-01 BMatC= 4.29D-13 BMatP= 2.95D-11
 IDIUse=1 WtCom= 1.00D+00 WtEn= 0.00D+00
 Coeff-Com:  0.548D-05-0.272D-04-0.263D-03 0.128D-02 0.492D-03-0.206D-01
 Coeff-Com:  0.961D-01-0.368D+00 0.129D+01
 Coeff:      0.548D-05-0.272D-04-0.263D-03 0.128D-02 0.492D-03-0.206D-01
 Coeff:      0.961D-01-0.368D+00 0.129D+01
 Gap=     0.537 Goal=   None    Shift=    0.000
 RMSDP=3.16D-08 MaxDP=3.35D-07 DE=-7.14D-11 OVMax= 5.36D-07

 Cycle  10  Pass 1  IDiag  1:
 E= -76.0298883736179     Delta-E=       -0.000000000001 Rises=F Damp=F
 DIIS: error= 3.17D-08 at cycle  10 NSaved=  10.
 NSaved=10 IEnMin=10 EnMin= -76.0298883736179     IErMin=10 ErrMin= 3.17D-08
 ErrMax= 3.17D-08  0.00D+00 EMaxC= 1.00D-01 BMatC= 2.44D-14 BMatP= 4.29D-13
 IDIUse=1 WtCom= 1.00D+00 WtEn= 0.00D+00
 Coeff-Com: -0.385D-06 0.218D-05 0.298D-04-0.214D-03 0.206D-03 0.228D-02
 Coeff-Com: -0.152D-01 0.743D-01-0.443D+00 0.138D+01
 Coeff:     -0.385D-06 0.218D-05 0.298D-04-0.214D-03 0.206D-03 0.228D-02
 Coeff:     -0.152D-01 0.743D-01-0.443D+00 0.138D+01
 Gap=     0.537 Goal=   None    Shift=    0.000
 RMSDP=7.71D-09 MaxDP=6.54D-08 DE=-1.08D-12 OVMax= 1.90D-07

 SCF Done:  E(RHF) =  -76.0298883736     A.U. after   10 cycles
            NFock= 10  Conv=0.77D-08     -V/T= 2.0041
 KE= 7.572303366574D+01 PE=-1.978446955536D+02 EE= 3.739200025575D+01
 Leave Link  502 at Wed Feb  8 14:51:21 2023, MaxMem=   754974720 cpu:               0.5 elap:               0.2
 (Enter /opt/cluster/programs/g16-c.01/g16/l801.exe)
 Windowed orbitals will be sorted by symmetry type.
 ExpMin= 2.97D-02 ExpMax= 1.17D+04 ExpMxC= 4.01D+02 IAcc=3 IRadAn=         5 AccDes= 0.00D+00
 HarFok:  IExCor=  205 AccDes= 0.00D+00 IRadAn=         5 IDoV=-2 UseB2=F ITyADJ=14
 ICtDFT= 12500011 ScaDFX=  1.000000  1.000000  1.000000  1.000000
 Largest valence mixing into a core orbital is  6.24D-05
 Largest core mixing into a valence orbital is  1.88D-05
 Range of M.O.s used for correlation:     2    41
 NBasis=    41 NAE=     5 NBE=     5 NFC=     1 NFV=     0
 NROrb=     40 NOA=     4 NOB=     4 NVA=    36 NVB=    36
 Leave Link  801 at Wed Feb  8 14:51:21 2023, MaxMem=   754974720 cpu:               0.2 elap:               0.1
 (Enter /opt/cluster/programs/g16-c.01/g16/l804.exe)
 Closed-shell transformation, MDV=   754974720 ITran=4 ISComp=2.
 Unit  1 TFree=         57018 TCopy=        140846.
 Semi-Direct transformation.
 ModeAB=           4 MOrb=             4 LenV=     754769467
 LASXX=        30213 LTotXX=       30213 LenRXX=       63236
 LTotAB=       33023 MaxLAS=      110560 LenRXY=           0
 NonZer=       93449 LenScr=      785920 LnRSAI=      110560
 LnScr1=      785920 LExtra=           0 Total=      1745636
 MaxDsk=          -1 SrtSym=           T ITran=            4
 DoSDTr:  NPSUse=  4
 JobTyp=0 Pass  1:  I=   1 to   4.
 (rs|ai) integrals will be sorted in core.
 Complete sort for first half transformation.
 First half transformation complete.
 Complete sort for second half transformation.
 Second half transformation complete.
 Spin components of T(2) and E(2):
     alpha-alpha T2 =       0.8110636186D-02 E2=     -0.2838042281D-01
     alpha-beta  T2 =       0.4623692370D-01 E2=     -0.1666529735D+00
     beta-beta   T2 =       0.8110636186D-02 E2=     -0.2838042281D-01
 ANorm=    0.1030756128D+01
 E2 =    -0.2234138192D+00 EUMP2 =    -0.76253302192780D+02
 Leave Link  804 at Wed Feb  8 14:51:21 2023, MaxMem=   754974720 cpu:               0.3 elap:               0.1
 (Enter /opt/cluster/programs/g16-c.01/g16/l913.exe)
 CIDS:  MDV=   754974720.
 Frozen-core window:  NFC=   1 NFV=   0.
 IFCWin=0 IBDFC=1 NFBD=     0     0 NFCmp=     0     0 NFFFC=     0     0
 Using DD3R+UMP44R for 1st iteration.
 Using DD4RQ for 2nd and later iterations.
 Keep R2 and R3 ints in memory in symmetry-blocked form, NReq=1214250.
 FoFCou: FMM=F IPFlag=           0 FMFlag=           0 FMFlg1=           0
         NFxFlg=           0 DoJE=F BraDBF=F KetDBF=F FulRan=T
         wScrn=  0.000000 ICntrl=       600 IOpCl=  0 I1Cent=           0 NGrid=           0
         NMat0=    1 NMatS0=    861 NMatT0=    0 NMatD0=    1 NMtDS0=    0 NMtDT0=    0
 Petite list used in FoFCou.
 CIDS: In Core Option IDoMem=           1.
 CCSD(T)
 =======
 Iterations=  50 Convergence= 0.100D-06
 Produce multiple copies of IABC intergrals
 Iteration Nr.   1
 **********************
 DD1Dir will call FoFMem   1 times, MxPair=        20
 NAB=    10 NAA=     0 NBB=     0.
 MP4(R+Q)=  0.25945731D-02
 Maximum subspace dimension=  5
 A-vector RMS=  5.7708289D-03 Max=  1.8597860D-02 conv= 1.00D-05.
 RLE energy=       -0.2247405837
 E3=       -0.40120767D-02        EUMP3=      -0.76257314269D+02
 E4(DQ)=   -0.18131665D-02        UMP4(DQ)=   -0.76259127436D+02
 E4(SDQ)=  -0.37415596D-02        UMP4(SDQ)=  -0.76261055829D+02
 VARIATIONAL ENERGIES WITH THE FIRST-ORDER WAVEFUNCTION:
 DE(Corr)= -0.22473279     E(Corr)=     -76.254621169    
 NORM(A)=   0.10316906D+01
 Iteration Nr.   2
 **********************
 DD1Dir will call FoFMem   1 times, MxPair=        20
 NAB=    10 NAA=     0 NBB=     0.
 A-vector RMS=  7.1401890D-04 Max=  3.3426028D-03 conv= 1.00D-05.
 RLE energy=       -0.2304550342
 DE(Corr)= -0.22977816     E(CORR)=     -76.259666538     Delta=-5.05D-03
 NORM(A)=   0.10342328D+01
 Iteration Nr.   3
 **********************
 DD1Dir will call FoFMem   1 times, MxPair=        20
 NAB=    10 NAA=     0 NBB=     0.
 A-vector RMS=  8.3337673D-04 Max=  3.2074785D-03 conv= 1.00D-05.
 RLE energy=       -0.2308932905
 DE(Corr)= -0.23039999     E(CORR)=     -76.260288364     Delta=-6.22D-04
 NORM(A)=   0.10348646D+01
 Iteration Nr.   4
 **********************
 DD1Dir will call FoFMem   1 times, MxPair=        20
 NAB=    10 NAA=     0 NBB=     0.
 A-vector RMS=  1.1040391D-04 Max=  4.1449089D-04 conv= 1.00D-05.
 RLE energy=       -0.2309385508
 DE(Corr)= -0.23090204     E(CORR)=     -76.260790409     Delta=-5.02D-04
 NORM(A)=   0.10350035D+01
 Iteration Nr.   5
 **********************
 DD1Dir will call FoFMem   1 times, MxPair=        20
 NAB=    10 NAA=     0 NBB=     0.
 A-vector RMS=  4.9357632D-05 Max=  1.7055313D-04 conv= 1.00D-05.
 RLE energy=       -0.2309467704
 DE(Corr)= -0.23094172     E(CORR)=     -76.260830091     Delta=-3.97D-05
 NORM(A)=   0.10350277D+01
 Iteration Nr.   6
 **********************
 DD1Dir will call FoFMem   1 times, MxPair=        20
 NAB=    10 NAA=     0 NBB=     0.
 A-vector RMS=  1.3967394D-05 Max=  4.4360767D-05 conv= 1.00D-05.
 RLE energy=       -0.2309430641
 DE(Corr)= -0.23094484     E(CORR)=     -76.260833218     Delta=-3.13D-06
 NORM(A)=   0.10350302D+01
 Iteration Nr.   7
 **********************
 DD1Dir will call FoFMem   1 times, MxPair=        20
 NAB=    10 NAA=     0 NBB=     0.
 A-vector RMS=  6.7767818D-06 Max=  2.8525782D-05 conv= 1.00D-05.
 RLE energy=       -0.2309439133
 DE(Corr)= -0.23094493     E(CORR)=     -76.260833305     Delta=-8.72D-08
 NORM(A)=   0.10350310D+01
 Iteration Nr.   8
 **********************
 DD1Dir will call FoFMem   1 times, MxPair=        20
 NAB=    10 NAA=     0 NBB=     0.
 A-vector RMS=  2.3096856D-06 Max=  8.6504228D-06 conv= 1.00D-05.
 RLE energy=       -0.2309442397
 DE(Corr)= -0.23094441     E(CORR)=     -76.260832787     Delta= 5.19D-07
 NORM(A)=   0.10350315D+01
 Iteration Nr.   9
 **********************
 DD1Dir will call FoFMem   1 times, MxPair=        20
 NAB=    10 NAA=     0 NBB=     0.
 A-vector RMS=  8.1975257D-07 Max=  3.1428829D-06 conv= 1.00D-05.
 RLE energy=       -0.2309446666
 DE(Corr)= -0.23094466     E(CORR)=     -76.260833037     Delta=-2.50D-07
 NORM(A)=   0.10350318D+01
 Iteration Nr.  10
 **********************
 DD1Dir will call FoFMem   1 times, MxPair=        20
 NAB=    10 NAA=     0 NBB=     0.
 A-vector RMS=  3.4131128D-07 Max=  1.1891402D-06 conv= 1.00D-05.
 RLE energy=       -0.2309447092
 DE(Corr)= -0.23094467     E(CORR)=     -76.260833044     Delta=-7.43D-09
 NORM(A)=   0.10350319D+01
 CI/CC converged in   10 iterations to DelEn=-7.43D-09 Conv= 1.00D-07 ErrA1= 3.41D-07 Conv= 1.00D-05
 Wavefunction amplitudes converged. E(Corr)=     -76.260833044    
 Largest amplitude= 3.50D-02
 IPart=  3 IA=    3   10.95% done.
 IPart=  3 IA=    5   21.27% done.
 IPart=  2 IA=    7   30.95% done.
 IPart=  3 IA=    9   40.00% done.
 IPart=  4 IA=   12   52.38% done.
 IPart=  4 IA=   15   63.33% done.
 IPart=  2 IA=   18   72.86% done.
 IPart=  3 IA=   21   80.95% done.
 IPart=  4 IA=   26   91.27% done.
 Time for triples=        0.84 seconds.
 T4(CCSD)= -0.60157313D-02
 T5(CCSD)=  0.45110659D-03
 CCSD(T)= -0.76266397669D+02
 Discarding MO integrals.
 Leave Link  913 at Wed Feb  8 14:51:22 2023, MaxMem=   754974720 cpu:               1.6 elap:               0.4
 (Enter /opt/cluster/programs/g16-c.01/g16/l601.exe)
 Copying SCF densities to generalized density rwf, IOpCl= 0 IROHF=0.

 **********************************************************************

            Population analysis using the SCF Density.

 **********************************************************************

 Orbital symmetries:
       Occupied  (A1) (A1) (B2) (A1) (B1)
       Virtual   (A1) (B2) (A1) (B1) (A1) (B2) (B2) (A1) (A2) (A1)
                 (B1) (B2) (A1) (B2) (B2) (A1) (B1) (A1) (A2) (A1)
                 (B2) (B1) (A1) (B2) (A2) (B1) (B2) (A1) (A1) (B2)
                 (A1) (B1) (A1) (A2) (A1) (B2)
 The electronic state is 1-A1.
 Alpha  occ. eigenvalues --  -20.57915  -1.32400  -0.71111  -0.55319  -0.50137
 Alpha virt. eigenvalues --    0.03519   0.05654   0.17644   0.19813   0.21370
 Alpha virt. eigenvalues --    0.22861   0.28554   0.30860   0.37511   0.42106
 Alpha virt. eigenvalues --    0.44487   0.51842   0.63471   0.65054   0.82373
 Alpha virt. eigenvalues --    0.87230   1.09099   1.09703   1.14523   1.36703
 Alpha virt. eigenvalues --    1.45896   1.48009   1.56282   1.94856   2.03013
 Alpha virt. eigenvalues --    2.03291   2.37748   2.39100   2.51395   2.72036
 Alpha virt. eigenvalues --    2.86940   3.66017   3.66896   3.69713   4.06034
 Alpha virt. eigenvalues --    4.15775
          Condensed to atoms (all electrons):
               1          2          3
     1  O    7.801853   0.320557   0.320557
     2  H    0.320557   0.487919  -0.029959
     3  H    0.320557  -0.029959   0.487919
 Mulliken charges:
               1
     1  O   -0.442967
     2  H    0.221484
     3  H    0.221484
 Sum of Mulliken charges =   0.00000
 Mulliken charges with hydrogens summed into heavy atoms:
               1
     1  O    0.000000
 Electronic spatial extent (au):  <R**2>=             20.2471
 Charge=              0.0000 electrons
 Dipole moment (field-independent basis, Debye):
    X=             -0.0000    Y=              0.0000    Z=             -1.8234  Tot=              1.8234
 Quadrupole moment (field-independent basis, Debye-Ang):
   XX=             -7.7385   YY=             -3.5799   ZZ=             -6.6770
   XY=              0.0000   XZ=              0.0000   YZ=              0.0000
 Traceless Quadrupole moment (field-independent basis, Debye-Ang):
   XX=             -1.7400   YY=              2.4186   ZZ=             -0.6786
   XY=              0.0000   XZ=              0.0000   YZ=              0.0000
 Octapole moment (field-independent basis, Debye-Ang**2):
  XXX=              0.0000  YYY=             -0.0000  ZZZ=             -0.9182  XYY=             -0.0000
  XXY=             -0.0000  XXZ=             -0.2309  XZZ=              0.0000  YZZ=              0.0000
  YYZ=             -1.5537  XYZ=             -0.0000
 Hexadecapole moment (field-independent basis, Debye-Ang**3):
 XXXX=             -7.0918 YYYY=             -5.8236 ZZZZ=             -7.6964 XXXY=             -0.0000
 XXXZ=             -0.0000 YYYX=              0.0000 YYYZ=              0.0000 ZZZX=             -0.0000
 ZZZY=              0.0000 XXYY=             -2.6872 XXZZ=             -2.5003 YYZZ=             -2.1023
 XXYZ=             -0.0000 YYXZ=              0.0000 ZZXY=             -0.0000
 N-N= 8.699773258506D+00 E-N=-1.978446958991D+02  KE= 7.572303366574D+01
 Symmetry A1   KE= 6.789291062642D+01
 Symmetry A2   KE= 2.109197000290D-33
 Symmetry B1   KE= 4.435092123509D+00
 Symmetry B2   KE= 3.395030915812D+00
 Leave Link  601 at Wed Feb  8 14:51:22 2023, MaxMem=   754974720 cpu:               0.4 elap:               0.1
 (Enter /opt/cluster/programs/g16-c.01/g16/l9999.exe)
 Unable to Open any file for archive entry.
 1\1\GINC-NODE68\SP\RCCSD(T)-FC\Aug-CC-pVDZ\H2O1\BOITTIER\08-Feb-2023\0
 \\#P CCSD(T)/aug-cc-pVDZ scf(maxcycle=200)\\Gaussian input\\0,1\O,0,0.
 ,0.11751,0.\H,0,0.7973622306,-0.5007896629,0.\H,0,-0.9087365837,-0.320
 9860905,0.\\Version=ES64L-G16RevC.01\State=1-A1\HF=-76.0298884\MP2=-76
 .2533022\MP3=-76.2573143\MP4D=-76.261722\MP4DQ=-76.2591274\MP4SDQ=-76.
 2610558\CCSD=-76.260833\CCSD(T)=-76.2663977\RMSD=7.712e-09\PG=C02V [C2
 (O1),SGV(H2)]\\@
 The archive entry for this job was punched.


 Other things may change us, but we start and end with family.
 -- Anthony Brandt
 Job cpu time:       0 days  0 hours  0 minutes  5.5 seconds.
 Elapsed time:       0 days  0 hours  0 minutes  1.5 seconds.
 File lengths (MBytes):  RWF=     20 Int=      0 D2E=      0 Chk=      1 Scr=      1
 Normal termination of Gaussian 16 at Wed Feb  8 14:51:22 2023.
