 Entering Gaussian System, Link 0=/opt/cluster/programs/g16-c.01/g16/g16
 Input=/scratch/boittier/jobs/tmp.7262320/gaussian_47_water_b3lyp_pdz.com
 Output=/scratch/boittier/jobs/tmp.7262320/gaussian_47_water_b3lyp_pdz.out
 Initial command:
 /opt/cluster/programs/g16-c.01/g16/l1.exe "/scratch/boittier/jobs/tmp.7262320/Gau-153822.inp" -scrdir="/scratch/boittier/jobs/tmp.7262320/"
 Entering Link 1 = /opt/cluster/programs/g16-c.01/g16/l1.exe PID=    153823.
  
 Copyright (c) 1988-2019, Gaussian, Inc.  All Rights Reserved.
  
 This is part of the Gaussian(R) 16 program.  It is based on
 the Gaussian(R) 09 system (copyright 2009, Gaussian, Inc.),
 the Gaussian(R) 03 system (copyright 2003, Gaussian, Inc.),
 the Gaussian(R) 98 system (copyright 1998, Gaussian, Inc.),
 the Gaussian(R) 94 system (copyright 1995, Gaussian, Inc.),
 the Gaussian 92(TM) system (copyright 1992, Gaussian, Inc.),
 the Gaussian 90(TM) system (copyright 1990, Gaussian, Inc.),
 the Gaussian 88(TM) system (copyright 1988, Gaussian, Inc.),
 the Gaussian 86(TM) system (copyright 1986, Carnegie Mellon
 University), and the Gaussian 82(TM) system (copyright 1983,
 Carnegie Mellon University). Gaussian is a federally registered
 trademark of Gaussian, Inc.
  
 This software contains proprietary and confidential information,
 including trade secrets, belonging to Gaussian, Inc.
  
 This software is provided under written license and may be
 used, copied, transmitted, or stored only in accord with that
 written license.
  
 The following legend is applicable only to US Government
 contracts under FAR:
  
                    RESTRICTED RIGHTS LEGEND
  
 Use, reproduction and disclosure by the US Government is
 subject to restrictions as set forth in subparagraphs (a)
 and (c) of the Commercial Computer Software - Restricted
 Rights clause in FAR 52.227-19.
  
 Gaussian, Inc.
 340 Quinnipiac St., Bldg. 40, Wallingford CT 06492
  
  
 ---------------------------------------------------------------
 Warning -- This program may not be used in any manner that
 competes with the business of Gaussian, Inc. or will provide
 assistance to any competitor of Gaussian, Inc.  The licensee
 of this program is prohibited from giving any competitor of
 Gaussian, Inc. access to this program.  By using this program,
 the user acknowledges that Gaussian, Inc. is engaged in the
 business of creating and licensing software in the field of
 computational chemistry and represents and warrants to the
 licensee that it is not a competitor of Gaussian, Inc. and that
 it will not use this program in any manner prohibited above.
 ---------------------------------------------------------------
  

 Cite this work as:
 Gaussian 16, Revision C.01,
 M. J. Frisch, G. W. Trucks, H. B. Schlegel, G. E. Scuseria, 
 M. A. Robb, J. R. Cheeseman, G. Scalmani, V. Barone, 
 G. A. Petersson, H. Nakatsuji, X. Li, M. Caricato, A. V. Marenich, 
 J. Bloino, B. G. Janesko, R. Gomperts, B. Mennucci, H. P. Hratchian, 
 J. V. Ortiz, A. F. Izmaylov, J. L. Sonnenberg, D. Williams-Young, 
 F. Ding, F. Lipparini, F. Egidi, J. Goings, B. Peng, A. Petrone, 
 T. Henderson, D. Ranasinghe, V. G. Zakrzewski, J. Gao, N. Rega, 
 G. Zheng, W. Liang, M. Hada, M. Ehara, K. Toyota, R. Fukuda, 
 J. Hasegawa, M. Ishida, T. Nakajima, Y. Honda, O. Kitao, H. Nakai, 
 T. Vreven, K. Throssell, J. A. Montgomery, Jr., J. E. Peralta, 
 F. Ogliaro, M. J. Bearpark, J. J. Heyd, E. N. Brothers, K. N. Kudin, 
 V. N. Staroverov, T. A. Keith, R. Kobayashi, J. Normand, 
 K. Raghavachari, A. P. Rendell, J. C. Burant, S. S. Iyengar, 
 J. Tomasi, M. Cossi, J. M. Millam, M. Klene, C. Adamo, R. Cammi, 
 J. W. Ochterski, R. L. Martin, K. Morokuma, O. Farkas, 
 J. B. Foresman, and D. J. Fox, Gaussian, Inc., Wallingford CT, 2019.
 
 ******************************************
 Gaussian 16:  ES64L-G16RevC.01  3-Jul-2019
                 8-Feb-2023 
 ******************************************
 %nproc=4
 Will use up to    4 processors via shared memory.
 %mem=5760MB
 %chk=gaussian_47_water_b3lyp_pdz.chk
 ---------------------------------
 #P B3LYP/6-31g* scf(maxcycle=200)
 ---------------------------------
 1/38=1,172=1/1;
 2/12=2,17=6,18=5,40=1/2;
 3/5=1,6=6,7=1,11=2,25=1,30=1,74=-5/1,2,3;
 4//1;
 5/5=2,7=200,38=5/2;
 6/7=2,8=2,9=2,10=2,28=1/1;
 99/5=1,9=1/99;
 Leave Link    1 at Wed Feb  8 14:50:18 2023, MaxMem=   754974720 cpu:               0.1 elap:               0.0
 (Enter /opt/cluster/programs/g16-c.01/g16/l101.exe)
 --------------
 Gaussian input
 --------------
 Symbolic Z-matrix:
 Charge =  0 Multiplicity = 1
 O                     0.        0.11751   0. 
 H                     0.71834  -0.43951   0. 
 H                    -0.72876  -0.58034   0. 
 
 ITRead=  0  0  0
 MicOpt= -1 -1 -1
 NAtoms=      3 NQM=        3 NQMF=       0 NMMI=      0 NMMIF=      0
                NMic=       0 NMicF=      0.
                    Isotopes and Nuclear Properties:
 (Nuclear quadrupole moments (NQMom) in fm**2, nuclear magnetic moments (NMagM)
  in nuclear magnetons)

  Atom         1           2           3
 IAtWgt=          16           1           1
 AtmWgt=  15.9949146   1.0078250   1.0078250
 NucSpn=           0           1           1
 AtZEff=  -0.0000000  -0.0000000  -0.0000000
 NQMom=    0.0000000   0.0000000   0.0000000
 NMagM=    0.0000000   2.7928460   2.7928460
 AtZNuc=   8.0000000   1.0000000   1.0000000
 Leave Link  101 at Wed Feb  8 14:50:18 2023, MaxMem=   754974720 cpu:               0.5 elap:               0.2
 (Enter /opt/cluster/programs/g16-c.01/g16/l202.exe)
                          Input orientation:                          
 ---------------------------------------------------------------------
 Center     Atomic      Atomic             Coordinates (Angstroms)
 Number     Number       Type             X           Y           Z
 ---------------------------------------------------------------------
      1          8           0        0.000000    0.117510    0.000000
      2          1           0        0.718337   -0.439511    0.000000
      3          1           0       -0.728757   -0.580340    0.000000
 ---------------------------------------------------------------------
                    Distance matrix (angstroms):
                    1          2          3
     1  O    0.000000
     2  H    0.909000   0.000000
     3  H    1.009000   1.453931   0.000000
 Stoichiometry    H2O
 Framework group  CS[SG(H2O)]
 Deg. of freedom     3
 Full point group                 CS      NOp   2
 Largest Abelian subgroup         CS      NOp   2
 Largest concise Abelian subgroup C1      NOp   1
                         Standard orientation:                         
 ---------------------------------------------------------------------
 Center     Atomic      Atomic             Coordinates (Angstroms)
 Number     Number       Type             X           Y           Z
 ---------------------------------------------------------------------
      1          8           0        0.000000    0.125491    0.000000
      2          1           0        0.722938   -0.425546    0.000000
      3          1           0       -0.722938   -0.578385    0.000000
 ---------------------------------------------------------------------
 Rotational constants (GHZ):         739.8884259         464.9580004         285.5277117
 Leave Link  202 at Wed Feb  8 14:50:18 2023, MaxMem=   754974720 cpu:               0.1 elap:               0.0
 (Enter /opt/cluster/programs/g16-c.01/g16/l301.exe)
 Standard basis: 6-31G(d) (6D, 7F)
 Ernie: Thresh=  0.10000D-02 Tol=  0.10000D-05 Strict=F.
 There are    15 symmetry adapted cartesian basis functions of A'  symmetry.
 There are     4 symmetry adapted cartesian basis functions of A"  symmetry.
 There are    15 symmetry adapted basis functions of A'  symmetry.
 There are     4 symmetry adapted basis functions of A"  symmetry.
    19 basis functions,    36 primitive gaussians,    19 cartesian basis functions
     5 alpha electrons        5 beta electrons
       nuclear repulsion energy         9.2168450984 Hartrees.
 IExCor=  402 DFT=T Ex+Corr=B3LYP ExCW=0 ScaHFX=  0.200000
 ScaDFX=  0.800000  0.720000  1.000000  0.810000 ScalE2=  1.000000  1.000000
 IRadAn=      5 IRanWt=     -1 IRanGd=            0 ICorTp=0 IEmpDi=  4
 NAtoms=    3 NActive=    3 NUniq=    3 SFac= 1.00D+00 NAtFMM=   60 NAOKFM=F Big=F
 Integral buffers will be    131072 words long.
 Raffenetti 2 integral format.
 Two-electron integral symmetry is turned on.
 Leave Link  301 at Wed Feb  8 14:50:18 2023, MaxMem=   754974720 cpu:               0.1 elap:               0.0
 (Enter /opt/cluster/programs/g16-c.01/g16/l302.exe)
 NPDir=0 NMtPBC=     1 NCelOv=     1 NCel=       1 NClECP=     1 NCelD=      1
         NCelK=      1 NCelE2=     1 NClLst=     1 CellRange=     0.0.
 One-electron integrals computed using PRISM.
 One-electron integral symmetry used in STVInt
 NBasis=    19 RedAO= T EigKep=  2.21D-02  NBF=    15     4
 NBsUse=    19 1.00D-06 EigRej= -1.00D+00 NBFU=    15     4
 Precomputing XC quadrature grid using
 IXCGrd= 4 IRadAn=           5 IRanWt=          -1 IRanGd=           0 AccXCQ= 0.00D+00.
 Generated NRdTot=       0 NPtTot=           0 NUsed=           0 NTot=          32
 NSgBfM=    19    19    19    19    19 MxSgAt=     3 MxSgA2=     3.
 Leave Link  302 at Wed Feb  8 14:50:18 2023, MaxMem=   754974720 cpu:               0.6 elap:               0.3
 (Enter /opt/cluster/programs/g16-c.01/g16/l303.exe)
 DipDrv:  MaxL=1.
 Leave Link  303 at Wed Feb  8 14:50:18 2023, MaxMem=   754974720 cpu:               0.2 elap:               0.1
 (Enter /opt/cluster/programs/g16-c.01/g16/l401.exe)
 ExpMin= 1.61D-01 ExpMax= 5.48D+03 ExpMxC= 8.25D+02 IAcc=3 IRadAn=         5 AccDes= 0.00D+00
 Harris functional with IExCor=  402 and IRadAn=       5 diagonalized for initial guess.
 HarFok:  IExCor=  402 AccDes= 0.00D+00 IRadAn=         5 IDoV= 1 UseB2=F ITyADJ=14
 ICtDFT=  3500011 ScaDFX=  1.000000  1.000000  1.000000  1.000000
 FoFCou: FMM=F IPFlag=           0 FMFlag=      100000 FMFlg1=           0
         NFxFlg=           0 DoJE=T BraDBF=F KetDBF=T FulRan=T
         wScrn=  0.000000 ICntrl=       500 IOpCl=  0 I1Cent=   200000004 NGrid=           0
         NMat0=    1 NMatS0=      1 NMatT0=    0 NMatD0=    1 NMtDS0=    0 NMtDT0=    0
 Petite list used in FoFCou.
 Harris En= -76.4422685792922    
 JPrj=0 DoOrth=F DoCkMO=F.
 Initial guess orbital symmetries:
       Occupied  (A') (A') (A') (A') (A")
       Virtual   (A') (A') (A') (A') (A") (A') (A') (A') (A') (A")
                 (A") (A') (A') (A')
 The electronic state of the initial guess is 1-A'.
 Leave Link  401 at Wed Feb  8 14:50:19 2023, MaxMem=   754974720 cpu:               0.5 elap:               0.2
 (Enter /opt/cluster/programs/g16-c.01/g16/l502.exe)
 Keep R1 ints in memory in symmetry-blocked form, NReq=3470963.
 FoFCou: FMM=F IPFlag=           0 FMFlag=           0 FMFlg1=           0
         NFxFlg=           0 DoJE=F BraDBF=F KetDBF=F FulRan=T
         wScrn=  0.000000 ICntrl=       600 IOpCl=  0 I1Cent=           0 NGrid=           0
         NMat0=    1 NMatS0=    190 NMatT0=    0 NMatD0=    1 NMtDS0=    0 NMtDT0=    0
 Petite list used in FoFCou.
 Closed shell SCF:
 Using DIIS extrapolation, IDIIS=  1040.
 NGot=   754974720 LenX=   754962225 LenY=   754961343
 Requested convergence on RMS density matrix=1.00D-08 within 200 cycles.
 Requested convergence on MAX density matrix=1.00D-06.
 Requested convergence on             energy=1.00D-06.
 No special actions if energy rises.
 Integral accuracy reduced to 1.0D-05 until final iterations.

 Cycle   1  Pass 0  IDiag  1:
 E= -76.3223085410146    
 DIIS: error= 7.79D-02 at cycle   1 NSaved=   1.
 NSaved= 1 IEnMin= 1 EnMin= -76.3223085410146     IErMin= 1 ErrMin= 7.79D-02
 ErrMax= 7.79D-02  0.00D+00 EMaxC= 1.00D-01 BMatC= 1.08D-01 BMatP= 1.08D-01
 IDIUse=3 WtCom= 2.21D-01 WtEn= 7.79D-01
 Coeff-Com:  0.100D+01
 Coeff-En:   0.100D+01
 Coeff:      0.100D+01
 Gap=     0.207 Goal=   None    Shift=    0.000
 GapD=    0.207 DampG=1.000 DampE=0.500 DampFc=0.5000 IDamp=-1.
 Damping current iteration by 5.00D-01
 RMSDP=3.06D-02 MaxDP=2.43D-01              OVMax= 2.11D-01

 Cycle   2  Pass 0  IDiag  1:
 E= -76.3495808888472     Delta-E=       -0.027272347833 Rises=F Damp=T
 DIIS: error= 1.97D-02 at cycle   2 NSaved=   2.
 NSaved= 2 IEnMin= 2 EnMin= -76.3495808888472     IErMin= 2 ErrMin= 1.97D-02
 ErrMax= 1.97D-02  0.00D+00 EMaxC= 1.00D-01 BMatC= 6.75D-03 BMatP= 1.08D-01
 IDIUse=3 WtCom= 8.03D-01 WtEn= 1.97D-01
 Coeff-Com:  0.186D+00 0.814D+00
 Coeff-En:   0.304D+00 0.696D+00
 Coeff:      0.210D+00 0.790D+00
 Gap=     0.340 Goal=   None    Shift=    0.000
 RMSDP=3.80D-03 MaxDP=4.15D-02 DE=-2.73D-02 OVMax= 1.15D-01

 Cycle   3  Pass 0  IDiag  1:
 E= -76.4027292386875     Delta-E=       -0.053148349840 Rises=F Damp=F
 DIIS: error= 3.55D-03 at cycle   3 NSaved=   3.
 NSaved= 3 IEnMin= 3 EnMin= -76.4027292386875     IErMin= 3 ErrMin= 3.55D-03
 ErrMax= 3.55D-03  0.00D+00 EMaxC= 1.00D-01 BMatC= 2.32D-04 BMatP= 6.75D-03
 IDIUse=3 WtCom= 9.64D-01 WtEn= 3.55D-02
 Coeff-Com:  0.377D-01-0.309D-01 0.993D+00
 Coeff-En:   0.000D+00 0.000D+00 0.100D+01
 Coeff:      0.363D-01-0.298D-01 0.993D+00
 Gap=     0.354 Goal=   None    Shift=    0.000
 RMSDP=5.21D-04 MaxDP=4.49D-03 DE=-5.31D-02 OVMax= 3.55D-03

 Cycle   4  Pass 0  IDiag  1:
 E= -76.4028867332778     Delta-E=       -0.000157494590 Rises=F Damp=F
 DIIS: error= 3.21D-04 at cycle   4 NSaved=   4.
 NSaved= 4 IEnMin= 4 EnMin= -76.4028867332778     IErMin= 4 ErrMin= 3.21D-04
 ErrMax= 3.21D-04  0.00D+00 EMaxC= 1.00D-01 BMatC= 1.78D-06 BMatP= 2.32D-04
 IDIUse=3 WtCom= 9.97D-01 WtEn= 3.21D-03
 Coeff-Com:  0.680D-02-0.191D-01 0.231D+00 0.781D+00
 Coeff-En:   0.000D+00 0.000D+00 0.000D+00 0.100D+01
 Coeff:      0.678D-02-0.191D-01 0.231D+00 0.782D+00
 Gap=     0.354 Goal=   None    Shift=    0.000
 RMSDP=3.78D-05 MaxDP=2.01D-04 DE=-1.57D-04 OVMax= 2.90D-04

 Cycle   5  Pass 0  IDiag  1:
 E= -76.4028880230314     Delta-E=       -0.000001289754 Rises=F Damp=F
 DIIS: error= 5.95D-05 at cycle   5 NSaved=   5.
 NSaved= 5 IEnMin= 5 EnMin= -76.4028880230314     IErMin= 5 ErrMin= 5.95D-05
 ErrMax= 5.95D-05  0.00D+00 EMaxC= 1.00D-01 BMatC= 5.25D-08 BMatP= 1.78D-06
 IDIUse=1 WtCom= 1.00D+00 WtEn= 0.00D+00
 Coeff-Com:  0.629D-03-0.497D-03 0.105D-02 0.389D-02 0.995D+00
 Coeff:      0.629D-03-0.497D-03 0.105D-02 0.389D-02 0.995D+00
 Gap=     0.354 Goal=   None    Shift=    0.000
 RMSDP=9.29D-06 MaxDP=8.47D-05 DE=-1.29D-06 OVMax= 5.48D-05

 Initial convergence to 1.0D-05 achieved.  Increase integral accuracy.
 Cycle   6  Pass 1  IDiag  1:
 E= -76.4028893566182     Delta-E=       -0.000001333587 Rises=F Damp=F
 DIIS: error= 1.41D-06 at cycle   1 NSaved=   1.
 NSaved= 1 IEnMin= 1 EnMin= -76.4028893566182     IErMin= 1 ErrMin= 1.41D-06
 ErrMax= 1.41D-06  0.00D+00 EMaxC= 1.00D-01 BMatC= 3.91D-11 BMatP= 3.91D-11
 IDIUse=1 WtCom= 1.00D+00 WtEn= 0.00D+00
 Coeff-Com:  0.100D+01
 Coeff:      0.100D+01
 Gap=     0.354 Goal=   None    Shift=    0.000
 RMSDP=9.29D-06 MaxDP=8.47D-05 DE=-1.33D-06 OVMax= 3.45D-06

 Cycle   7  Pass 1  IDiag  1:
 E= -76.4028893566421     Delta-E=       -0.000000000024 Rises=F Damp=F
 DIIS: error= 8.11D-07 at cycle   2 NSaved=   2.
 NSaved= 2 IEnMin= 2 EnMin= -76.4028893566421     IErMin= 2 ErrMin= 8.11D-07
 ErrMax= 8.11D-07  0.00D+00 EMaxC= 1.00D-01 BMatC= 1.80D-11 BMatP= 3.91D-11
 IDIUse=1 WtCom= 1.00D+00 WtEn= 0.00D+00
 Coeff-Com:  0.397D+00 0.603D+00
 Coeff:      0.397D+00 0.603D+00
 Gap=     0.354 Goal=   None    Shift=    0.000
 RMSDP=1.90D-07 MaxDP=1.22D-06 DE=-2.39D-11 OVMax= 1.31D-06

 Cycle   8  Pass 1  IDiag  1:
 E= -76.4028893566535     Delta-E=       -0.000000000011 Rises=F Damp=F
 DIIS: error= 3.98D-07 at cycle   3 NSaved=   3.
 NSaved= 3 IEnMin= 3 EnMin= -76.4028893566535     IErMin= 3 ErrMin= 3.98D-07
 ErrMax= 3.98D-07  0.00D+00 EMaxC= 1.00D-01 BMatC= 2.48D-12 BMatP= 1.80D-11
 IDIUse=1 WtCom= 1.00D+00 WtEn= 0.00D+00
 Coeff-Com:  0.160D+00 0.340D+00 0.500D+00
 Coeff:      0.160D+00 0.340D+00 0.500D+00
 Gap=     0.354 Goal=   None    Shift=    0.000
 RMSDP=5.41D-08 MaxDP=3.52D-07 DE=-1.15D-11 OVMax= 3.87D-07

 Cycle   9  Pass 1  IDiag  1:
 E= -76.4028893566553     Delta-E=       -0.000000000002 Rises=F Damp=F
 DIIS: error= 1.76D-08 at cycle   4 NSaved=   4.
 NSaved= 4 IEnMin= 4 EnMin= -76.4028893566553     IErMin= 4 ErrMin= 1.76D-08
 ErrMax= 1.76D-08  0.00D+00 EMaxC= 1.00D-01 BMatC= 5.74D-15 BMatP= 2.48D-12
 IDIUse=1 WtCom= 1.00D+00 WtEn= 0.00D+00
 Coeff-Com: -0.156D-01-0.106D-01 0.152D-01 0.101D+01
 Coeff:     -0.156D-01-0.106D-01 0.152D-01 0.101D+01
 Gap=     0.354 Goal=   None    Shift=    0.000
 RMSDP=5.55D-09 MaxDP=3.38D-08 DE=-1.73D-12 OVMax= 5.54D-08

 SCF Done:  E(RB3LYP) =  -76.4028893567     A.U. after    9 cycles
            NFock=  9  Conv=0.55D-08     -V/T= 2.0069
 KE= 7.588184600295D+01 PE=-1.990172766135D+02 EE= 3.751569615551D+01
 Leave Link  502 at Wed Feb  8 14:50:19 2023, MaxMem=   754974720 cpu:               1.0 elap:               0.3
 (Enter /opt/cluster/programs/g16-c.01/g16/l601.exe)
 Copying SCF densities to generalized density rwf, IOpCl= 0 IROHF=0.

 **********************************************************************

            Population analysis using the SCF Density.

 **********************************************************************

 Orbital symmetries:
       Occupied  (A') (A') (A') (A') (A")
       Virtual   (A') (A') (A') (A') (A") (A') (A') (A') (A') (A")
                 (A") (A') (A') (A')
 The electronic state is 1-A'.
 Alpha  occ. eigenvalues --  -19.13875  -1.00926  -0.51139  -0.38360  -0.29387
 Alpha virt. eigenvalues --    0.06049   0.15237   0.74953   0.88186   0.88953
 Alpha virt. eigenvalues --    0.91380   1.06999   1.21595   1.71167   1.74709
 Alpha virt. eigenvalues --    1.77274   2.27865   2.60123   3.54868
          Condensed to atoms (all electrons):
               1          2          3
     1  O    8.277058   0.246276   0.241709
     2  H    0.246276   0.390062  -0.027703
     3  H    0.241709  -0.027703   0.412315
 Mulliken charges:
               1
     1  O   -0.765044
     2  H    0.391365
     3  H    0.373679
 Sum of Mulliken charges =  -0.00000
 Mulliken charges with hydrogens summed into heavy atoms:
               1
     1  O   -0.000000
 Electronic spatial extent (au):  <R**2>=             19.0799
 Charge=             -0.0000 electrons
 Dipole moment (field-independent basis, Debye):
    X=              0.1008    Y=             -2.1663    Z=              0.0000  Tot=              2.1687
 Quadrupole moment (field-independent basis, Debye-Ang):
   XX=             -4.5457   YY=             -5.8306   ZZ=             -7.1845
   XY=              0.1961   XZ=              0.0000   YZ=              0.0000
 Traceless Quadrupole moment (field-independent basis, Debye-Ang):
   XX=              1.3079   YY=              0.0230   ZZ=             -1.3309
   XY=              0.1961   XZ=              0.0000   YZ=              0.0000
 Octapole moment (field-independent basis, Debye-Ang**2):
  XXX=              0.2042  YYY=             -1.3341  ZZZ=              0.0000  XYY=             -0.1244
  XXY=             -1.1432  XXZ=              0.0000  XZZ=              0.0715  YZZ=             -0.3372
  YYZ=              0.0000  XYZ=              0.0000
 Hexadecapole moment (field-independent basis, Debye-Ang**3):
 XXXX=             -6.1018 YYYY=             -6.3500 ZZZZ=             -5.1934 XXXY=             -0.0980
 XXXZ=              0.0000 YYYX=             -0.0351 YYYZ=              0.0000 ZZZX=              0.0000
 ZZZY=              0.0000 XXYY=             -1.7242 XXZZ=             -2.0698 YYZZ=             -1.9900
 XXYZ=              0.0000 YYXZ=              0.0000 ZZXY=             -0.0731
 N-N= 9.216845098411D+00 E-N=-1.990172765488D+02  KE= 7.588184600295D+01
 Symmetry A'   KE= 7.127638658019D+01
 Symmetry A"   KE= 4.605459422757D+00
 No NMR shielding tensors so no spin-rotation constants.
 Leave Link  601 at Wed Feb  8 14:50:19 2023, MaxMem=   754974720 cpu:               0.3 elap:               0.1
 (Enter /opt/cluster/programs/g16-c.01/g16/l9999.exe)
 Unable to Open any file for archive entry.
 1\1\GINC-NODE76\SP\RB3LYP\6-31G(d)\H2O1\BOITTIER\08-Feb-2023\0\\#P B3L
 YP/6-31g* scf(maxcycle=200)\\Gaussian input\\0,1\O,0,0.,0.11751,0.\H,0
 ,0.7183372325,-0.4395112028,0.\H,0,-0.7287571056,-0.580339612,0.\\Vers
 ion=ES64L-G16RevC.01\State=1-A'\HF=-76.4028894\RMSD=5.548e-09\Dipole=0
 .0325817,-0.8526031,0.\Quadrupole=0.9747551,0.0147443,-0.9894994,0.137
 852,0.,0.\PG=CS [SG(H2O1)]\\@
 The archive entry for this job was punched.


 WE STILL HAVE JUDGEMENT HERE,
 THAT WE TEACH BUT BLOODY INSTRUCTIONS,
 WHICH, BEING TAUGHT,
 RETURN TO PLAGUE THE INVENTOR.
           MACBETH ACT I, SCENE VII
 Job cpu time:       0 days  0 hours  0 minutes  3.5 seconds.
 Elapsed time:       0 days  0 hours  0 minutes  1.2 seconds.
 File lengths (MBytes):  RWF=      6 Int=      0 D2E=      0 Chk=      1 Scr=      1
 Normal termination of Gaussian 16 at Wed Feb  8 14:50:19 2023.
