 Entering Gaussian System, Link 0=/opt/cluster/programs/g16-c.01/g16/g16
 Input=/scratch/boittier/jobs/tmp.7261715/gaussian_47_water_ccsdt_atz.com
 Output=/scratch/boittier/jobs/tmp.7261715/gaussian_47_water_ccsdt_atz.out
 Initial command:
 /opt/cluster/programs/g16-c.01/g16/l1.exe "/scratch/boittier/jobs/tmp.7261715/Gau-136117.inp" -scrdir="/scratch/boittier/jobs/tmp.7261715/"
 Entering Link 1 = /opt/cluster/programs/g16-c.01/g16/l1.exe PID=    136118.
  
 Copyright (c) 1988-2019, Gaussian, Inc.  All Rights Reserved.
  
 This is part of the Gaussian(R) 16 program.  It is based on
 the Gaussian(R) 09 system (copyright 2009, Gaussian, Inc.),
 the Gaussian(R) 03 system (copyright 2003, Gaussian, Inc.),
 the Gaussian(R) 98 system (copyright 1998, Gaussian, Inc.),
 the Gaussian(R) 94 system (copyright 1995, Gaussian, Inc.),
 the Gaussian 92(TM) system (copyright 1992, Gaussian, Inc.),
 the Gaussian 90(TM) system (copyright 1990, Gaussian, Inc.),
 the Gaussian 88(TM) system (copyright 1988, Gaussian, Inc.),
 the Gaussian 86(TM) system (copyright 1986, Carnegie Mellon
 University), and the Gaussian 82(TM) system (copyright 1983,
 Carnegie Mellon University). Gaussian is a federally registered
 trademark of Gaussian, Inc.
  
 This software contains proprietary and confidential information,
 including trade secrets, belonging to Gaussian, Inc.
  
 This software is provided under written license and may be
 used, copied, transmitted, or stored only in accord with that
 written license.
  
 The following legend is applicable only to US Government
 contracts under FAR:
  
                    RESTRICTED RIGHTS LEGEND
  
 Use, reproduction and disclosure by the US Government is
 subject to restrictions as set forth in subparagraphs (a)
 and (c) of the Commercial Computer Software - Restricted
 Rights clause in FAR 52.227-19.
  
 Gaussian, Inc.
 340 Quinnipiac St., Bldg. 40, Wallingford CT 06492
  
  
 ---------------------------------------------------------------
 Warning -- This program may not be used in any manner that
 competes with the business of Gaussian, Inc. or will provide
 assistance to any competitor of Gaussian, Inc.  The licensee
 of this program is prohibited from giving any competitor of
 Gaussian, Inc. access to this program.  By using this program,
 the user acknowledges that Gaussian, Inc. is engaged in the
 business of creating and licensing software in the field of
 computational chemistry and represents and warrants to the
 licensee that it is not a competitor of Gaussian, Inc. and that
 it will not use this program in any manner prohibited above.
 ---------------------------------------------------------------
  

 Cite this work as:
 Gaussian 16, Revision C.01,
 M. J. Frisch, G. W. Trucks, H. B. Schlegel, G. E. Scuseria, 
 M. A. Robb, J. R. Cheeseman, G. Scalmani, V. Barone, 
 G. A. Petersson, H. Nakatsuji, X. Li, M. Caricato, A. V. Marenich, 
 J. Bloino, B. G. Janesko, R. Gomperts, B. Mennucci, H. P. Hratchian, 
 J. V. Ortiz, A. F. Izmaylov, J. L. Sonnenberg, D. Williams-Young, 
 F. Ding, F. Lipparini, F. Egidi, J. Goings, B. Peng, A. Petrone, 
 T. Henderson, D. Ranasinghe, V. G. Zakrzewski, J. Gao, N. Rega, 
 G. Zheng, W. Liang, M. Hada, M. Ehara, K. Toyota, R. Fukuda, 
 J. Hasegawa, M. Ishida, T. Nakajima, Y. Honda, O. Kitao, H. Nakai, 
 T. Vreven, K. Throssell, J. A. Montgomery, Jr., J. E. Peralta, 
 F. Ogliaro, M. J. Bearpark, J. J. Heyd, E. N. Brothers, K. N. Kudin, 
 V. N. Staroverov, T. A. Keith, R. Kobayashi, J. Normand, 
 K. Raghavachari, A. P. Rendell, J. C. Burant, S. S. Iyengar, 
 J. Tomasi, M. Cossi, J. M. Millam, M. Klene, C. Adamo, R. Cammi, 
 J. W. Ochterski, R. L. Martin, K. Morokuma, O. Farkas, 
 J. B. Foresman, and D. J. Fox, Gaussian, Inc., Wallingford CT, 2019.
 
 ******************************************
 Gaussian 16:  ES64L-G16RevC.01  3-Jul-2019
                 8-Feb-2023 
 ******************************************
 %nproc=4
 Will use up to    4 processors via shared memory.
 %mem=5760MB
 %chk=gaussian_47_water_ccsdt_atz.chk
 ----------------------------------------
 #P CCSD(T)/aug-cc-pVTZ scf(maxcycle=200)
 ----------------------------------------
 1/38=1,172=1/1;
 2/12=2,17=6,18=5,40=1/2;
 3/5=16,6=1,7=10,11=9,25=1,30=1/1,2,3;
 4//1;
 5/5=2,7=200,38=5/2;
 8/6=4,9=120000,10=1/1,4;
 9/5=7,14=2/13;
 6/7=2,8=2,9=2,10=2/1;
 99/5=1,9=1/99;
 Leave Link    1 at Wed Feb  8 13:50:06 2023, MaxMem=   754974720 cpu:               0.2 elap:               0.1
 (Enter /opt/cluster/programs/g16-c.01/g16/l101.exe)
 --------------
 Gaussian input
 --------------
 Symbolic Z-matrix:
 Charge =  0 Multiplicity = 1
 O                     0.        0.11751   0. 
 H                     0.71834  -0.43951   0. 
 H                    -0.72876  -0.58034   0. 
 
 ITRead=  0  0  0
 MicOpt= -1 -1 -1
 NAtoms=      3 NQM=        3 NQMF=       0 NMMI=      0 NMMIF=      0
                NMic=       0 NMicF=      0.
                    Isotopes and Nuclear Properties:
 (Nuclear quadrupole moments (NQMom) in fm**2, nuclear magnetic moments (NMagM)
  in nuclear magnetons)

  Atom         1           2           3
 IAtWgt=          16           1           1
 AtmWgt=  15.9949146   1.0078250   1.0078250
 NucSpn=           0           1           1
 AtZEff=  -0.0000000  -0.0000000  -0.0000000
 NQMom=    0.0000000   0.0000000   0.0000000
 NMagM=    0.0000000   2.7928460   2.7928460
 AtZNuc=   8.0000000   1.0000000   1.0000000
 Leave Link  101 at Wed Feb  8 13:50:06 2023, MaxMem=   754974720 cpu:               0.4 elap:               0.2
 (Enter /opt/cluster/programs/g16-c.01/g16/l202.exe)
                          Input orientation:                          
 ---------------------------------------------------------------------
 Center     Atomic      Atomic             Coordinates (Angstroms)
 Number     Number       Type             X           Y           Z
 ---------------------------------------------------------------------
      1          8           0        0.000000    0.117510    0.000000
      2          1           0        0.718337   -0.439511    0.000000
      3          1           0       -0.728757   -0.580340    0.000000
 ---------------------------------------------------------------------
                    Distance matrix (angstroms):
                    1          2          3
     1  O    0.000000
     2  H    0.909000   0.000000
     3  H    1.009000   1.453931   0.000000
 Stoichiometry    H2O
 Framework group  CS[SG(H2O)]
 Deg. of freedom     3
 Full point group                 CS      NOp   2
 Largest Abelian subgroup         CS      NOp   2
 Largest concise Abelian subgroup C1      NOp   1
                         Standard orientation:                         
 ---------------------------------------------------------------------
 Center     Atomic      Atomic             Coordinates (Angstroms)
 Number     Number       Type             X           Y           Z
 ---------------------------------------------------------------------
      1          8           0        0.000000    0.125491    0.000000
      2          1           0        0.722938   -0.425546    0.000000
      3          1           0       -0.722938   -0.578385    0.000000
 ---------------------------------------------------------------------
 Rotational constants (GHZ):         739.8884259         464.9580004         285.5277117
 Leave Link  202 at Wed Feb  8 13:50:06 2023, MaxMem=   754974720 cpu:               0.1 elap:               0.0
 (Enter /opt/cluster/programs/g16-c.01/g16/l301.exe)
 Standard basis: Aug-CC-pVTZ (5D, 7F)
 Ernie: Thresh=  0.10000D-02 Tol=  0.10000D-05 Strict=F.
 Ernie:  3 primitive shells out of 52 were deleted.
 There are    73 symmetry adapted cartesian basis functions of A'  symmetry.
 There are    32 symmetry adapted cartesian basis functions of A"  symmetry.
 There are    62 symmetry adapted basis functions of A'  symmetry.
 There are    30 symmetry adapted basis functions of A"  symmetry.
    92 basis functions,   126 primitive gaussians,   105 cartesian basis functions
     5 alpha electrons        5 beta electrons
       nuclear repulsion energy         9.2168450984 Hartrees.
 IExCor=    0 DFT=F Ex=HF Corr=None ExCW=0 ScaHFX=  1.000000
 ScaDFX=  1.000000  1.000000  1.000000  1.000000 ScalE2=  1.000000  1.000000
 IRadAn=      5 IRanWt=     -1 IRanGd=            0 ICorTp=0 IEmpDi=  4
 NAtoms=    3 NActive=    3 NUniq=    3 SFac= 1.00D+00 NAtFMM=   60 NAOKFM=F Big=F
 Integral buffers will be    131072 words long.
 Raffenetti 1 integral format.
 Two-electron integral symmetry is turned on.
 Leave Link  301 at Wed Feb  8 13:50:06 2023, MaxMem=   754974720 cpu:               0.3 elap:               0.1
 (Enter /opt/cluster/programs/g16-c.01/g16/l302.exe)
 NPDir=0 NMtPBC=     1 NCelOv=     1 NCel=       1 NClECP=     1 NCelD=      1
         NCelK=      1 NCelE2=     1 NClLst=     1 CellRange=     0.0.
 One-electron integrals computed using PRISM.
 One-electron integral symmetry used in STVInt
 NBasis=    92 RedAO= T EigKep=  3.55D-04  NBF=    62    30
 NBsUse=    92 1.00D-06 EigRej= -1.00D+00 NBFU=    62    30
 Leave Link  302 at Wed Feb  8 13:50:07 2023, MaxMem=   754974720 cpu:               1.6 elap:               0.6
 (Enter /opt/cluster/programs/g16-c.01/g16/l303.exe)
 DipDrv:  MaxL=1.
 Leave Link  303 at Wed Feb  8 13:50:07 2023, MaxMem=   754974720 cpu:               0.5 elap:               0.2
 (Enter /opt/cluster/programs/g16-c.01/g16/l401.exe)
 ExpMin= 2.53D-02 ExpMax= 1.53D+04 ExpMxC= 5.22D+02 IAcc=3 IRadAn=         5 AccDes= 0.00D+00
 Harris functional with IExCor=  205 and IRadAn=       5 diagonalized for initial guess.
 HarFok:  IExCor=  205 AccDes= 0.00D+00 IRadAn=         5 IDoV= 1 UseB2=F ITyADJ=14
 ICtDFT=  3500011 ScaDFX=  1.000000  1.000000  1.000000  1.000000
 FoFCou: FMM=F IPFlag=           0 FMFlag=      100000 FMFlg1=           0
         NFxFlg=           0 DoJE=T BraDBF=F KetDBF=T FulRan=T
         wScrn=  0.000000 ICntrl=       500 IOpCl=  0 I1Cent=   200000004 NGrid=           0
         NMat0=    1 NMatS0=      1 NMatT0=    0 NMatD0=    1 NMtDS0=    0 NMtDT0=    0
 Petite list used in FoFCou.
 Harris En= -76.1480351194877    
 JPrj=0 DoOrth=F DoCkMO=F.
 Initial guess orbital symmetries:
       Occupied  (A') (A') (A') (A') (A")
       Virtual   (A') (A') (A') (A") (A') (A') (A') (A') (A") (A')
                 (A") (A') (A') (A') (A') (A') (A') (A") (A") (A')
                 (A") (A') (A") (A') (A") (A') (A') (A') (A') (A")
                 (A') (A') (A") (A') (A') (A") (A") (A') (A') (A')
                 (A') (A") (A") (A') (A') (A') (A") (A') (A") (A')
                 (A') (A') (A") (A') (A') (A") (A") (A') (A") (A')
                 (A') (A") (A") (A') (A') (A') (A") (A') (A') (A')
                 (A") (A') (A') (A') (A") (A') (A") (A") (A') (A")
                 (A') (A") (A') (A') (A') (A') (A')
 The electronic state of the initial guess is 1-A'.
 Leave Link  401 at Wed Feb  8 13:50:07 2023, MaxMem=   754974720 cpu:               0.7 elap:               0.2
 (Enter /opt/cluster/programs/g16-c.01/g16/l502.exe)
 Keep R1 ints in memory in symmetry-blocked form, NReq=13818732.
 FoFCou: FMM=F IPFlag=           0 FMFlag=           0 FMFlg1=           0
         NFxFlg=           0 DoJE=F BraDBF=F KetDBF=F FulRan=T
         wScrn=  0.000000 ICntrl=       600 IOpCl=  0 I1Cent=           0 NGrid=           0
         NMat0=    1 NMatS0=   4278 NMatT0=    0 NMatD0=    1 NMtDS0=    0 NMtDT0=    0
 Petite list used in FoFCou.
 Closed shell SCF:
 Using DIIS extrapolation, IDIIS=  1040.
 NGot=   754974720 LenX=   750285684 LenY=   750274218
 Requested convergence on RMS density matrix=1.00D-08 within 200 cycles.
 Requested convergence on MAX density matrix=1.00D-06.
 Requested convergence on             energy=1.00D-06.
 No special actions if energy rises.

 Cycle   1  Pass 1  IDiag  1:
 E= -75.9630872255859    
 DIIS: error= 6.03D-02 at cycle   1 NSaved=   1.
 NSaved= 1 IEnMin= 1 EnMin= -75.9630872255859     IErMin= 1 ErrMin= 6.03D-02
 ErrMax= 6.03D-02  0.00D+00 EMaxC= 1.00D-01 BMatC= 2.06D-01 BMatP= 2.06D-01
 IDIUse=3 WtCom= 3.97D-01 WtEn= 6.03D-01
 Coeff-Com:  0.100D+01
 Coeff-En:   0.100D+01
 Coeff:      0.100D+01
 Gap=     0.453 Goal=   None    Shift=    0.000
 GapD=    0.453 DampG=2.000 DampE=0.500 DampFc=1.0000 IDamp=-1.
 RMSDP=2.19D-03 MaxDP=4.90D-02              OVMax= 1.26D-01

 Cycle   2  Pass 1  IDiag  1:
 E= -76.0159363209982     Delta-E=       -0.052849095412 Rises=F Damp=F
 DIIS: error= 4.01D-02 at cycle   2 NSaved=   2.
 NSaved= 2 IEnMin= 2 EnMin= -76.0159363209982     IErMin= 2 ErrMin= 4.01D-02
 ErrMax= 4.01D-02  0.00D+00 EMaxC= 1.00D-01 BMatC= 6.14D-02 BMatP= 2.06D-01
 IDIUse=3 WtCom= 5.99D-01 WtEn= 4.01D-01
 Coeff-Com:  0.326D+00 0.674D+00
 Coeff-En:   0.207D+00 0.793D+00
 Coeff:      0.279D+00 0.721D+00
 Gap=     0.568 Goal=   None    Shift=    0.000
 RMSDP=1.33D-03 MaxDP=3.55D-02 DE=-5.28D-02 OVMax= 6.62D-02

 Cycle   3  Pass 1  IDiag  1:
 E= -76.0522531577418     Delta-E=       -0.036316836744 Rises=F Damp=F
 DIIS: error= 8.27D-03 at cycle   3 NSaved=   3.
 NSaved= 3 IEnMin= 3 EnMin= -76.0522531577418     IErMin= 3 ErrMin= 8.27D-03
 ErrMax= 8.27D-03  0.00D+00 EMaxC= 1.00D-01 BMatC= 2.94D-03 BMatP= 6.14D-02
 IDIUse=3 WtCom= 9.17D-01 WtEn= 8.27D-02
 Coeff-Com: -0.311D-01 0.148D+00 0.883D+00
 Coeff-En:   0.000D+00 0.000D+00 0.100D+01
 Coeff:     -0.285D-01 0.136D+00 0.893D+00
 Gap=     0.538 Goal=   None    Shift=    0.000
 RMSDP=2.25D-04 MaxDP=4.37D-03 DE=-3.63D-02 OVMax= 1.29D-02

 Cycle   4  Pass 1  IDiag  1:
 E= -76.0540970732398     Delta-E=       -0.001843915498 Rises=F Damp=F
 DIIS: error= 7.01D-04 at cycle   4 NSaved=   4.
 NSaved= 4 IEnMin= 4 EnMin= -76.0540970732398     IErMin= 4 ErrMin= 7.01D-04
 ErrMax= 7.01D-04  0.00D+00 EMaxC= 1.00D-01 BMatC= 1.53D-05 BMatP= 2.94D-03
 IDIUse=3 WtCom= 9.93D-01 WtEn= 7.01D-03
 Coeff-Com:  0.719D-02-0.567D-01-0.251D+00 0.130D+01
 Coeff-En:   0.000D+00 0.000D+00 0.000D+00 0.100D+01
 Coeff:      0.714D-02-0.563D-01-0.249D+00 0.130D+01
 Gap=     0.540 Goal=   None    Shift=    0.000
 RMSDP=3.97D-05 MaxDP=7.35D-04 DE=-1.84D-03 OVMax= 2.36D-03

 Cycle   5  Pass 1  IDiag  1:
 E= -76.0541236662465     Delta-E=       -0.000026593007 Rises=F Damp=F
 DIIS: error= 1.96D-04 at cycle   5 NSaved=   5.
 NSaved= 5 IEnMin= 5 EnMin= -76.0541236662465     IErMin= 5 ErrMin= 1.96D-04
 ErrMax= 1.96D-04  0.00D+00 EMaxC= 1.00D-01 BMatC= 7.55D-07 BMatP= 1.53D-05
 IDIUse=3 WtCom= 9.98D-01 WtEn= 1.96D-03
 Coeff-Com:  0.275D-03 0.231D-02 0.723D-02-0.280D+00 0.127D+01
 Coeff-En:   0.000D+00 0.000D+00 0.000D+00 0.000D+00 0.100D+01
 Coeff:      0.275D-03 0.231D-02 0.721D-02-0.279D+00 0.127D+01
 Gap=     0.541 Goal=   None    Shift=    0.000
 RMSDP=1.17D-05 MaxDP=2.41D-04 DE=-2.66D-05 OVMax= 7.45D-04

 Cycle   6  Pass 1  IDiag  1:
 E= -76.0541255129625     Delta-E=       -0.000001846716 Rises=F Damp=F
 DIIS: error= 2.79D-05 at cycle   6 NSaved=   6.
 NSaved= 6 IEnMin= 6 EnMin= -76.0541255129625     IErMin= 6 ErrMin= 2.79D-05
 ErrMax= 2.79D-05  0.00D+00 EMaxC= 1.00D-01 BMatC= 2.25D-08 BMatP= 7.55D-07
 IDIUse=1 WtCom= 1.00D+00 WtEn= 0.00D+00
 Coeff-Com: -0.284D-03 0.136D-02 0.579D-02 0.183D-01-0.315D+00 0.129D+01
 Coeff:     -0.284D-03 0.136D-02 0.579D-02 0.183D-01-0.315D+00 0.129D+01
 Gap=     0.541 Goal=   None    Shift=    0.000
 RMSDP=2.37D-06 MaxDP=5.47D-05 DE=-1.85D-06 OVMax= 1.52D-04

 Cycle   7  Pass 1  IDiag  1:
 E= -76.0541255792860     Delta-E=       -0.000000066324 Rises=F Damp=F
 DIIS: error= 4.50D-06 at cycle   7 NSaved=   7.
 NSaved= 7 IEnMin= 7 EnMin= -76.0541255792860     IErMin= 7 ErrMin= 4.50D-06
 ErrMax= 4.50D-06  0.00D+00 EMaxC= 1.00D-01 BMatC= 1.05D-09 BMatP= 2.25D-08
 IDIUse=1 WtCom= 1.00D+00 WtEn= 0.00D+00
 Coeff-Com:  0.213D-04-0.319D-03-0.140D-02 0.162D-01-0.390D-01-0.116D+00
 Coeff-Com:  0.114D+01
 Coeff:      0.213D-04-0.319D-03-0.140D-02 0.162D-01-0.390D-01-0.116D+00
 Coeff:      0.114D+01
 Gap=     0.541 Goal=   None    Shift=    0.000
 RMSDP=3.61D-07 MaxDP=7.14D-06 DE=-6.63D-08 OVMax= 2.73D-05

 Cycle   8  Pass 1  IDiag  1:
 E= -76.0541255814141     Delta-E=       -0.000000002128 Rises=F Damp=F
 DIIS: error= 9.99D-07 at cycle   8 NSaved=   8.
 NSaved= 8 IEnMin= 8 EnMin= -76.0541255814141     IErMin= 8 ErrMin= 9.99D-07
 ErrMax= 9.99D-07  0.00D+00 EMaxC= 1.00D-01 BMatC= 5.10D-11 BMatP= 1.05D-09
 IDIUse=1 WtCom= 1.00D+00 WtEn= 0.00D+00
 Coeff-Com:  0.838D-05 0.102D-04 0.988D-04-0.488D-02 0.236D-01-0.260D-01
 Coeff-Com: -0.328D+00 0.134D+01
 Coeff:      0.838D-05 0.102D-04 0.988D-04-0.488D-02 0.236D-01-0.260D-01
 Coeff:     -0.328D+00 0.134D+01
 Gap=     0.541 Goal=   None    Shift=    0.000
 RMSDP=1.15D-07 MaxDP=2.28D-06 DE=-2.13D-09 OVMax= 6.98D-06

 Cycle   9  Pass 1  IDiag  1:
 E= -76.0541255815438     Delta-E=       -0.000000000130 Rises=F Damp=F
 DIIS: error= 1.80D-07 at cycle   9 NSaved=   9.
 NSaved= 9 IEnMin= 9 EnMin= -76.0541255815438     IErMin= 9 ErrMin= 1.80D-07
 ErrMax= 1.80D-07  0.00D+00 EMaxC= 1.00D-01 BMatC= 9.92D-13 BMatP= 5.10D-11
 IDIUse=1 WtCom= 1.00D+00 WtEn= 0.00D+00
 Coeff-Com: -0.221D-05 0.463D-05 0.354D-05 0.714D-03-0.411D-02 0.742D-02
 Coeff-Com:  0.529D-01-0.316D+00 0.126D+01
 Coeff:     -0.221D-05 0.463D-05 0.354D-05 0.714D-03-0.411D-02 0.742D-02
 Coeff:      0.529D-01-0.316D+00 0.126D+01
 Gap=     0.541 Goal=   None    Shift=    0.000
 RMSDP=1.81D-08 MaxDP=3.64D-07 DE=-1.30D-10 OVMax= 8.36D-07

 Cycle  10  Pass 1  IDiag  1:
 E= -76.0541255815461     Delta-E=       -0.000000000002 Rises=F Damp=F
 DIIS: error= 3.86D-08 at cycle  10 NSaved=  10.
 NSaved=10 IEnMin=10 EnMin= -76.0541255815461     IErMin=10 ErrMin= 3.86D-08
 ErrMax= 3.86D-08  0.00D+00 EMaxC= 1.00D-01 BMatC= 4.56D-14 BMatP= 9.92D-13
 IDIUse=1 WtCom= 1.00D+00 WtEn= 0.00D+00
 Coeff-Com:  0.191D-06-0.138D-05-0.420D-05 0.116D-04 0.101D-03-0.724D-03
 Coeff-Com:  0.313D-03 0.174D-01-0.269D+00 0.125D+01
 Coeff:      0.191D-06-0.138D-05-0.420D-05 0.116D-04 0.101D-03-0.724D-03
 Coeff:      0.313D-03 0.174D-01-0.269D+00 0.125D+01
 Gap=     0.541 Goal=   None    Shift=    0.000
 RMSDP=4.04D-09 MaxDP=7.90D-08 DE=-2.26D-12 OVMax= 2.08D-07

 SCF Done:  E(RHF) =  -76.0541255815     A.U. after   10 cycles
            NFock= 10  Conv=0.40D-08     -V/T= 2.0010
 KE= 7.598036518192D+01 PE=-1.990371448458D+02 EE= 3.778580898387D+01
 Leave Link  502 at Wed Feb  8 13:50:08 2023, MaxMem=   754974720 cpu:               2.4 elap:               1.0
 (Enter /opt/cluster/programs/g16-c.01/g16/l801.exe)
 Windowed orbitals will be sorted by symmetry type.
 ExpMin= 2.53D-02 ExpMax= 1.53D+04 ExpMxC= 5.22D+02 IAcc=3 IRadAn=         5 AccDes= 0.00D+00
 HarFok:  IExCor=  205 AccDes= 0.00D+00 IRadAn=         5 IDoV=-2 UseB2=F ITyADJ=14
 ICtDFT= 12500011 ScaDFX=  1.000000  1.000000  1.000000  1.000000
 Largest valence mixing into a core orbital is  1.11D-04
 Largest core mixing into a valence orbital is  1.68D-05
 Range of M.O.s used for correlation:     2    92
 NBasis=    92 NAE=     5 NBE=     5 NFC=     1 NFV=     0
 NROrb=     91 NOA=     4 NOB=     4 NVA=    87 NVB=    87

 **** Warning!!: The largest alpha MO coefficient is  0.15925299D+02

 Leave Link  801 at Wed Feb  8 13:50:09 2023, MaxMem=   754974720 cpu:               0.6 elap:               0.2
 (Enter /opt/cluster/programs/g16-c.01/g16/l804.exe)
 Closed-shell transformation, MDV=   754974720 ITran=4 ISComp=2.
 Unit  1 TFree=        277501 TCopy=        343607.
 Semi-Direct transformation.
 ModeAB=           2 MOrb=             4 LenV=     754586778
 LASXX=       736380 LTotXX=      736380 LenRXX=      736380
 LTotAB=      763744 MaxLAS=     2025660 LenRXY=     2025660
 NonZer=     2107560 LenScr=     3929600 LnRSAI=           0
 LnScr1=           0 LExtra=           0 Total=      6691640
 MaxDsk=          -1 SrtSym=           F ITran=            4
 DoSDTr:  NPSUse=  4
 JobTyp=0 Pass  1:  I=   1 to   4.
 (rs|ai) integrals will be sorted in core.
 Complete sort for first half transformation.
 First half transformation complete.
 Complete sort for second half transformation.
 Second half transformation complete.
 Spin components of T(2) and E(2):
     alpha-alpha T2 =       0.8170715647D-02 E2=     -0.3264579696D-01
     alpha-beta  T2 =       0.4750182744D-01 E2=     -0.2037124274D+00
     beta-beta   T2 =       0.8170715647D-02 E2=     -0.3264579696D-01
 ANorm=    0.1031427777D+01
 E2 =    -0.2690040213D+00 EUMP2 =    -0.76323129602837D+02
 Leave Link  804 at Wed Feb  8 13:50:14 2023, MaxMem=   754974720 cpu:              15.9 elap:               5.6
 (Enter /opt/cluster/programs/g16-c.01/g16/l913.exe)
 CIDS:  MDV=   754974720.
 Frozen-core window:  NFC=   1 NFV=   0.
 IFCWin=0 IBDFC=1 NFBD=     0     0 NFCmp=     0     0 NFFFC=     0     0
 Using DD3R+UMP44R for 1st iteration.
 Using DD4RQ for 2nd and later iterations.
 Keep R2 and R3 ints in memory in symmetry-blocked form, NReq=13979827.
 FoFCou: FMM=F IPFlag=           0 FMFlag=           0 FMFlg1=           0
         NFxFlg=           0 DoJE=F BraDBF=F KetDBF=F FulRan=T
         wScrn=  0.000000 ICntrl=       600 IOpCl=  0 I1Cent=           0 NGrid=           0
         NMat0=    1 NMatS0=   4278 NMatT0=    0 NMatD0=    1 NMtDS0=    0 NMtDT0=    0
 Petite list used in FoFCou.
 CIDS: In Core Option IDoMem=           1.
 CCSD(T)
 =======
 Iterations=  50 Convergence= 0.100D-06
 Produce multiple copies of IABC intergrals
 Iteration Nr.   1
 **********************
 DD1Dir will call FoFMem   1 times, MxPair=        20
 NAB=    10 NAA=     0 NBB=     0.
 MP4(R+Q)=  0.41032738D-02
 Maximum subspace dimension=  5
 A-vector RMS=  2.8779605D-03 Max=  1.2189355D-02 conv= 1.00D-05.
 RLE energy=       -0.2674551158
 E3=       -0.25872144D-02        EUMP3=      -0.76325716817D+02
 E4(DQ)=   -0.63136604D-03        UMP4(DQ)=   -0.76326348183D+02
 E4(SDQ)=  -0.25577540D-02        UMP4(SDQ)=  -0.76328274571D+02
 VARIATIONAL ENERGIES WITH THE FIRST-ORDER WAVEFUNCTION:
 DE(Corr)= -0.26744615     E(Corr)=     -76.321571734    
 NORM(A)=   0.10312233D+01
 Iteration Nr.   2
 **********************
 DD1Dir will call FoFMem   1 times, MxPair=        20
 NAB=    10 NAA=     0 NBB=     0.
 A-vector RMS=  3.0923209D-04 Max=  2.1885265D-03 conv= 1.00D-05.
 RLE energy=       -0.2733085910
 DE(Corr)= -0.27291864     E(CORR)=     -76.327044218     Delta=-5.47D-03
 NORM(A)=   0.10333770D+01
 Iteration Nr.   3
 **********************
 DD1Dir will call FoFMem   1 times, MxPair=        20
 NAB=    10 NAA=     0 NBB=     0.
 A-vector RMS=  4.0066301D-04 Max=  2.2328151D-03 conv= 1.00D-05.
 RLE energy=       -0.2736253378
 DE(Corr)= -0.27324291     E(CORR)=     -76.327368493     Delta=-3.24D-04
 NORM(A)=   0.10338068D+01
 Iteration Nr.   4
 **********************
 DD1Dir will call FoFMem   1 times, MxPair=        20
 NAB=    10 NAA=     0 NBB=     0.
 A-vector RMS=  6.2513305D-05 Max=  3.7274757D-04 conv= 1.00D-05.
 RLE energy=       -0.2736598103
 DE(Corr)= -0.27363125     E(CORR)=     -76.327756835     Delta=-3.88D-04
 NORM(A)=   0.10339217D+01
 Iteration Nr.   5
 **********************
 DD1Dir will call FoFMem   1 times, MxPair=        20
 NAB=    10 NAA=     0 NBB=     0.
 A-vector RMS=  3.0102747D-05 Max=  1.9142876D-04 conv= 1.00D-05.
 RLE energy=       -0.2736721029
 DE(Corr)= -0.27366666     E(CORR)=     -76.327792241     Delta=-3.54D-05
 NORM(A)=   0.10339444D+01
 Iteration Nr.   6
 **********************
 DD1Dir will call FoFMem   1 times, MxPair=        20
 NAB=    10 NAA=     0 NBB=     0.
 A-vector RMS=  7.0251518D-06 Max=  4.1444920D-05 conv= 1.00D-05.
 RLE energy=       -0.2736684802
 DE(Corr)= -0.27366940     E(CORR)=     -76.327794977     Delta=-2.74D-06
 NORM(A)=   0.10339463D+01
 Iteration Nr.   7
 **********************
 DD1Dir will call FoFMem   1 times, MxPair=        20
 NAB=    10 NAA=     0 NBB=     0.
 A-vector RMS=  2.3657493D-06 Max=  1.1030614D-05 conv= 1.00D-05.
 RLE energy=       -0.2736685071
 DE(Corr)= -0.27366939     E(CORR)=     -76.327794971     Delta= 6.40D-09
 NORM(A)=   0.10339469D+01
 Iteration Nr.   8
 **********************
 DD1Dir will call FoFMem   1 times, MxPair=        20
 NAB=    10 NAA=     0 NBB=     0.
 A-vector RMS=  9.1987345D-07 Max=  5.4337483D-06 conv= 1.00D-05.
 RLE energy=       -0.2736690360
 DE(Corr)= -0.27366914     E(CORR)=     -76.327794722     Delta= 2.48D-07
 NORM(A)=   0.10339473D+01
 Iteration Nr.   9
 **********************
 DD1Dir will call FoFMem   1 times, MxPair=        20
 NAB=    10 NAA=     0 NBB=     0.
 A-vector RMS=  2.1334419D-07 Max=  1.0491111D-06 conv= 1.00D-05.
 RLE energy=       -0.2736691315
 DE(Corr)= -0.27366915     E(CORR)=     -76.327794729     Delta=-7.05D-09
 NORM(A)=   0.10339474D+01
 CI/CC converged in    9 iterations to DelEn=-7.05D-09 Conv= 1.00D-07 ErrA1= 2.13D-07 Conv= 1.00D-05
 Wavefunction amplitudes converged. E(Corr)=     -76.327794729    
 Largest amplitude= 1.92D-02
 IPart=  3 IA=    6   11.23% done.
 IPart=  4 IA=   11   21.79% done.
 IPart=  4 IA=   16   31.68% done.
 IPart=  2 IA=   21   40.90% done.
 IPart=  4 IA=   27   51.08% done.
 IPart=  2 IA=   33   60.30% done.
 IPart=  3 IA=   41   71.10% done.
 IPart=  4 IA=   49   80.19% done.
 IPart=  1 IA=   61   90.62% done.
 Time for triples=        6.56 seconds.
 T4(CCSD)= -0.90206408D-02
 T5(CCSD)=  0.32645910D-03
 CCSD(T)= -0.76336488911D+02
 Discarding MO integrals.
 Leave Link  913 at Wed Feb  8 13:50:17 2023, MaxMem=   754974720 cpu:              13.3 elap:               3.3
 (Enter /opt/cluster/programs/g16-c.01/g16/l601.exe)
 Copying SCF densities to generalized density rwf, IOpCl= 0 IROHF=0.

 **********************************************************************

            Population analysis using the SCF Density.

 **********************************************************************

 Orbital symmetries:
       Occupied  (A') (A') (A') (A') (A")
       Virtual   (A') (A') (A') (A") (A') (A') (A') (A') (A") (A")
                 (A') (A') (A') (A') (A') (A') (A') (A") (A") (A')
                 (A") (A') (A") (A') (A") (A') (A') (A') (A') (A")
                 (A') (A") (A') (A') (A') (A") (A") (A') (A') (A')
                 (A') (A") (A") (A') (A') (A') (A") (A') (A') (A")
                 (A') (A') (A") (A') (A') (A") (A') (A") (A") (A')
                 (A') (A") (A") (A') (A') (A') (A") (A') (A') (A')
                 (A") (A') (A') (A') (A") (A') (A") (A') (A") (A")
                 (A') (A") (A') (A') (A') (A') (A')
 The electronic state is 1-A'.
 Alpha  occ. eigenvalues --  -20.56952  -1.35963  -0.70577  -0.59548  -0.51218
 Alpha virt. eigenvalues --    0.02889   0.04810   0.13472   0.15939   0.17527
 Alpha virt. eigenvalues --    0.18487   0.22519   0.24592   0.26758   0.29476
 Alpha virt. eigenvalues --    0.30686   0.36709   0.43223   0.47030   0.59585
 Alpha virt. eigenvalues --    0.66524   0.70420   0.72830   0.73054   0.83584
 Alpha virt. eigenvalues --    0.85305   0.89181   0.91001   0.91084   0.92446
 Alpha virt. eigenvalues --    0.93796   0.95269   1.01052   1.06089   1.07916
 Alpha virt. eigenvalues --    1.10663   1.18114   1.18766   1.26785   1.49616
 Alpha virt. eigenvalues --    1.50229   1.57972   1.80742   1.86751   1.93934
 Alpha virt. eigenvalues --    2.15567   2.26453   2.31948   2.32598   2.41583
 Alpha virt. eigenvalues --    2.42368   2.42519   2.52817   2.68924   2.69426
 Alpha virt. eigenvalues --    2.76159   2.81096   2.87625   3.60844   3.73511
 Alpha virt. eigenvalues --    4.04557   4.08497   4.09220   4.21692   4.29090
 Alpha virt. eigenvalues --    4.34979   4.37928   4.41521   4.54939   4.71770
 Alpha virt. eigenvalues --    4.85866   5.10122   5.16814   5.20256   5.42377
 Alpha virt. eigenvalues --    5.59130   5.63907   6.24175   6.50241   6.71135
 Alpha virt. eigenvalues --    6.97012   7.08279   7.22041   7.23031   7.32956
 Alpha virt. eigenvalues --    7.38577   7.43326   7.58115   7.79372   8.04126
 Alpha virt. eigenvalues --    8.81595  15.95892
          Condensed to atoms (all electrons):
               1          2          3
     1  O    7.901017   0.262871   0.267863
     2  H    0.262871   0.540156   0.024777
     3  H    0.267863   0.024777   0.447803
 Mulliken charges:
               1
     1  O   -0.431751
     2  H    0.172196
     3  H    0.259556
 Sum of Mulliken charges =  -0.00000
 Mulliken charges with hydrogens summed into heavy atoms:
               1
     1  O   -0.000000
 Electronic spatial extent (au):  <R**2>=             19.4866
 Charge=             -0.0000 electrons
 Dipole moment (field-independent basis, Debye):
    X=              0.0514    Y=             -2.0822    Z=              0.0000  Tot=              2.0828
 Quadrupole moment (field-independent basis, Debye-Ang):
   XX=             -4.5256   YY=             -6.0313   ZZ=             -7.5508
   XY=              0.2332   XZ=              0.0000   YZ=              0.0000
 Traceless Quadrupole moment (field-independent basis, Debye-Ang):
   XX=              1.5103   YY=              0.0046   ZZ=             -1.5149
   XY=              0.2332   XZ=              0.0000   YZ=              0.0000
 Octapole moment (field-independent basis, Debye-Ang**2):
  XXX=              0.1543  YYY=             -1.2922  ZZZ=              0.0000  XYY=             -0.1849
  XXY=             -1.3676  XXZ=              0.0000  XZZ=              0.0528  YZZ=             -0.2603
  YYZ=              0.0000  XYZ=              0.0000
 Hexadecapole moment (field-independent basis, Debye-Ang**3):
 XXXX=             -6.1496 YYYY=             -7.2732 ZZZZ=             -6.7015 XXXY=             -0.0477
 XXXZ=              0.0000 YYYX=              0.0205 YYYZ=              0.0000 ZZZX=              0.0000
 ZZZY=              0.0000 XXYY=             -1.8062 XXZZ=             -2.4101 YYZZ=             -2.4026
 XXYZ=              0.0000 YYXZ=              0.0000 ZZXY=             -0.0693
 N-N= 9.216845098411D+00 E-N=-1.990371446656D+02  KE= 7.598036518192D+01
 Symmetry A'   KE= 7.150575319532D+01
 Symmetry A"   KE= 4.474611986600D+00
 Leave Link  601 at Wed Feb  8 13:50:18 2023, MaxMem=   754974720 cpu:               0.8 elap:               0.4
 (Enter /opt/cluster/programs/g16-c.01/g16/l9999.exe)
 Unable to Open any file for archive entry.
 1\1\GINC-NODE66\SP\RCCSD(T)-FC\Aug-CC-pVTZ\H2O1\BOITTIER\08-Feb-2023\0
 \\#P CCSD(T)/aug-cc-pVTZ scf(maxcycle=200)\\Gaussian input\\0,1\O,0,0.
 ,0.11751,0.\H,0,0.7183372325,-0.4395112028,0.\H,0,-0.7287571056,-0.580
 339612,0.\\Version=ES64L-G16RevC.01\State=1-A'\HF=-76.0541256\MP2=-76.
 3231296\MP3=-76.3257168\MP4D=-76.3304515\MP4DQ=-76.3263482\MP4SDQ=-76.
 3282746\CCSD=-76.3277947\CCSD(T)=-76.3364889\RMSD=4.044e-09\PG=CS [SG(
 H2O1)]\\@
 The archive entry for this job was punched.


 ONLY A FOOL KNOWS EVERYTHING.

               -- THE CHEMIST ANALYST, SEPTEMBER 1946
 Job cpu time:       0 days  0 hours  0 minutes 37.2 seconds.
 Elapsed time:       0 days  0 hours  0 minutes 12.0 seconds.
 File lengths (MBytes):  RWF=     75 Int=      0 D2E=      0 Chk=      2 Scr=      1
 Normal termination of Gaussian 16 at Wed Feb  8 13:50:18 2023.
