 Entering Gaussian System, Link 0=/opt/cluster/programs/g16-c.01/g16/g16
 Input=/scratch/boittier/jobs/tmp.7262529/gaussian_6_water_hf_pdz.com
 Output=/scratch/boittier/jobs/tmp.7262529/gaussian_6_water_hf_pdz.out
 Initial command:
 /opt/cluster/programs/g16-c.01/g16/l1.exe "/scratch/boittier/jobs/tmp.7262529/Gau-53436.inp" -scrdir="/scratch/boittier/jobs/tmp.7262529/"
 Entering Link 1 = /opt/cluster/programs/g16-c.01/g16/l1.exe PID=     53437.
  
 Copyright (c) 1988-2019, Gaussian, Inc.  All Rights Reserved.
  
 This is part of the Gaussian(R) 16 program.  It is based on
 the Gaussian(R) 09 system (copyright 2009, Gaussian, Inc.),
 the Gaussian(R) 03 system (copyright 2003, Gaussian, Inc.),
 the Gaussian(R) 98 system (copyright 1998, Gaussian, Inc.),
 the Gaussian(R) 94 system (copyright 1995, Gaussian, Inc.),
 the Gaussian 92(TM) system (copyright 1992, Gaussian, Inc.),
 the Gaussian 90(TM) system (copyright 1990, Gaussian, Inc.),
 the Gaussian 88(TM) system (copyright 1988, Gaussian, Inc.),
 the Gaussian 86(TM) system (copyright 1986, Carnegie Mellon
 University), and the Gaussian 82(TM) system (copyright 1983,
 Carnegie Mellon University). Gaussian is a federally registered
 trademark of Gaussian, Inc.
  
 This software contains proprietary and confidential information,
 including trade secrets, belonging to Gaussian, Inc.
  
 This software is provided under written license and may be
 used, copied, transmitted, or stored only in accord with that
 written license.
  
 The following legend is applicable only to US Government
 contracts under FAR:
  
                    RESTRICTED RIGHTS LEGEND
  
 Use, reproduction and disclosure by the US Government is
 subject to restrictions as set forth in subparagraphs (a)
 and (c) of the Commercial Computer Software - Restricted
 Rights clause in FAR 52.227-19.
  
 Gaussian, Inc.
 340 Quinnipiac St., Bldg. 40, Wallingford CT 06492
  
  
 ---------------------------------------------------------------
 Warning -- This program may not be used in any manner that
 competes with the business of Gaussian, Inc. or will provide
 assistance to any competitor of Gaussian, Inc.  The licensee
 of this program is prohibited from giving any competitor of
 Gaussian, Inc. access to this program.  By using this program,
 the user acknowledges that Gaussian, Inc. is engaged in the
 business of creating and licensing software in the field of
 computational chemistry and represents and warrants to the
 licensee that it is not a competitor of Gaussian, Inc. and that
 it will not use this program in any manner prohibited above.
 ---------------------------------------------------------------
  

 Cite this work as:
 Gaussian 16, Revision C.01,
 M. J. Frisch, G. W. Trucks, H. B. Schlegel, G. E. Scuseria, 
 M. A. Robb, J. R. Cheeseman, G. Scalmani, V. Barone, 
 G. A. Petersson, H. Nakatsuji, X. Li, M. Caricato, A. V. Marenich, 
 J. Bloino, B. G. Janesko, R. Gomperts, B. Mennucci, H. P. Hratchian, 
 J. V. Ortiz, A. F. Izmaylov, J. L. Sonnenberg, D. Williams-Young, 
 F. Ding, F. Lipparini, F. Egidi, J. Goings, B. Peng, A. Petrone, 
 T. Henderson, D. Ranasinghe, V. G. Zakrzewski, J. Gao, N. Rega, 
 G. Zheng, W. Liang, M. Hada, M. Ehara, K. Toyota, R. Fukuda, 
 J. Hasegawa, M. Ishida, T. Nakajima, Y. Honda, O. Kitao, H. Nakai, 
 T. Vreven, K. Throssell, J. A. Montgomery, Jr., J. E. Peralta, 
 F. Ogliaro, M. J. Bearpark, J. J. Heyd, E. N. Brothers, K. N. Kudin, 
 V. N. Staroverov, T. A. Keith, R. Kobayashi, J. Normand, 
 K. Raghavachari, A. P. Rendell, J. C. Burant, S. S. Iyengar, 
 J. Tomasi, M. Cossi, J. M. Millam, M. Klene, C. Adamo, R. Cammi, 
 J. W. Ochterski, R. L. Martin, K. Morokuma, O. Farkas, 
 J. B. Foresman, and D. J. Fox, Gaussian, Inc., Wallingford CT, 2019.
 
 ******************************************
 Gaussian 16:  ES64L-G16RevC.01  3-Jul-2019
                 8-Feb-2023 
 ******************************************
 %nproc=4
 Will use up to    4 processors via shared memory.
 %mem=5760MB
 %chk=gaussian_6_water_hf_pdz.chk
 ------------------------------
 #P HF/6-31g* scf(maxcycle=200)
 ------------------------------
 1/38=1,172=1/1;
 2/12=2,17=6,18=5,40=1/2;
 3/5=1,6=6,7=1,11=9,25=1,30=1/1,2,3;
 4//1;
 5/5=2,7=200,38=5/2;
 6/7=2,8=2,9=2,10=2,28=1/1;
 99/5=1,9=1/99;
 Leave Link    1 at Wed Feb  8 15:04:41 2023, MaxMem=   754974720 cpu:               0.3 elap:               0.3
 (Enter /opt/cluster/programs/g16-c.01/g16/l101.exe)
 --------------
 Gaussian input
 --------------
 Symbolic Z-matrix:
 Charge =  0 Multiplicity = 1
 O                     0.        0.11751   0. 
 H                     0.71834  -0.43951   0. 
 H                    -0.63419  -0.53371   0. 
 
 ITRead=  0  0  0
 MicOpt= -1 -1 -1
 NAtoms=      3 NQM=        3 NQMF=       0 NMMI=      0 NMMIF=      0
                NMic=       0 NMicF=      0.
                    Isotopes and Nuclear Properties:
 (Nuclear quadrupole moments (NQMom) in fm**2, nuclear magnetic moments (NMagM)
  in nuclear magnetons)

  Atom         1           2           3
 IAtWgt=          16           1           1
 AtmWgt=  15.9949146   1.0078250   1.0078250
 NucSpn=           0           1           1
 AtZEff=  -0.0000000  -0.0000000  -0.0000000
 NQMom=    0.0000000   0.0000000   0.0000000
 NMagM=    0.0000000   2.7928460   2.7928460
 AtZNuc=   8.0000000   1.0000000   1.0000000
 Leave Link  101 at Wed Feb  8 15:04:43 2023, MaxMem=   754974720 cpu:               0.8 elap:               0.3
 (Enter /opt/cluster/programs/g16-c.01/g16/l202.exe)
                          Input orientation:                          
 ---------------------------------------------------------------------
 Center     Atomic      Atomic             Coordinates (Angstroms)
 Number     Number       Type             X           Y           Z
 ---------------------------------------------------------------------
      1          8           0        0.000000    0.117510    0.000000
      2          1           0        0.718337   -0.439511    0.000000
      3          1           0       -0.634191   -0.533707    0.000000
 ---------------------------------------------------------------------
                    Distance matrix (angstroms):
                    1          2          3
     1  O    0.000000
     2  H    0.909000   0.000000
     3  H    0.909000   1.355804   0.000000
 Stoichiometry    H2O
 Framework group  C2V[C2(O),SGV(H2)]
 Deg. of freedom     2
 Full point group                 C2V     NOp   4
 Largest Abelian subgroup         C2V     NOp   4
 Largest concise Abelian subgroup C2      NOp   2
                         Standard orientation:                         
 ---------------------------------------------------------------------
 Center     Atomic      Atomic             Coordinates (Angstroms)
 Number     Number       Type             X           Y           Z
 ---------------------------------------------------------------------
      1          8           0        0.000000   -0.000000    0.121116
      2          1           0        0.000000    0.677902   -0.484466
      3          1           0       -0.000000   -0.677902   -0.484466
 ---------------------------------------------------------------------
 Rotational constants (GHZ):         769.8411882         545.5923243         319.3011575
 Leave Link  202 at Wed Feb  8 15:04:43 2023, MaxMem=   754974720 cpu:               0.2 elap:               0.1
 (Enter /opt/cluster/programs/g16-c.01/g16/l301.exe)
 Standard basis: 6-31G(d) (6D, 7F)
 Ernie: Thresh=  0.10000D-02 Tol=  0.10000D-05 Strict=F.
 There are    10 symmetry adapted cartesian basis functions of A1  symmetry.
 There are     1 symmetry adapted cartesian basis functions of A2  symmetry.
 There are     3 symmetry adapted cartesian basis functions of B1  symmetry.
 There are     5 symmetry adapted cartesian basis functions of B2  symmetry.
 There are    10 symmetry adapted basis functions of A1  symmetry.
 There are     1 symmetry adapted basis functions of A2  symmetry.
 There are     3 symmetry adapted basis functions of B1  symmetry.
 There are     5 symmetry adapted basis functions of B2  symmetry.
    19 basis functions,    36 primitive gaussians,    19 cartesian basis functions
     5 alpha electrons        5 beta electrons
       nuclear repulsion energy         9.7047554632 Hartrees.
 IExCor=    0 DFT=F Ex=HF Corr=None ExCW=0 ScaHFX=  1.000000
 ScaDFX=  1.000000  1.000000  1.000000  1.000000 ScalE2=  1.000000  1.000000
 IRadAn=      5 IRanWt=     -1 IRanGd=            0 ICorTp=0 IEmpDi=  4
 NAtoms=    3 NActive=    3 NUniq=    2 SFac= 2.25D+00 NAtFMM=   60 NAOKFM=F Big=F
 Integral buffers will be    131072 words long.
 Raffenetti 1 integral format.
 Two-electron integral symmetry is turned on.
 Leave Link  301 at Wed Feb  8 15:04:44 2023, MaxMem=   754974720 cpu:               0.2 elap:               0.0
 (Enter /opt/cluster/programs/g16-c.01/g16/l302.exe)
 NPDir=0 NMtPBC=     1 NCelOv=     1 NCel=       1 NClECP=     1 NCelD=      1
         NCelK=      1 NCelE2=     1 NClLst=     1 CellRange=     0.0.
 One-electron integrals computed using PRISM.
 One-electron integral symmetry used in STVInt
 NBasis=    19 RedAO= T EigKep=  2.05D-02  NBF=    10     1     3     5
 NBsUse=    19 1.00D-06 EigRej= -1.00D+00 NBFU=    10     1     3     5
 Leave Link  302 at Wed Feb  8 15:04:44 2023, MaxMem=   754974720 cpu:               0.6 elap:               0.2
 (Enter /opt/cluster/programs/g16-c.01/g16/l303.exe)
 DipDrv:  MaxL=1.
 Leave Link  303 at Wed Feb  8 15:04:44 2023, MaxMem=   754974720 cpu:               0.1 elap:               0.0
 (Enter /opt/cluster/programs/g16-c.01/g16/l401.exe)
 ExpMin= 1.61D-01 ExpMax= 5.48D+03 ExpMxC= 8.25D+02 IAcc=3 IRadAn=         5 AccDes= 0.00D+00
 Harris functional with IExCor=  205 and IRadAn=       5 diagonalized for initial guess.
 HarFok:  IExCor=  205 AccDes= 0.00D+00 IRadAn=         5 IDoV= 1 UseB2=F ITyADJ=14
 ICtDFT=  3500011 ScaDFX=  1.000000  1.000000  1.000000  1.000000
 FoFCou: FMM=F IPFlag=           0 FMFlag=      100000 FMFlg1=           0
         NFxFlg=           0 DoJE=T BraDBF=F KetDBF=T FulRan=T
         wScrn=  0.000000 ICntrl=       500 IOpCl=  0 I1Cent=   200000004 NGrid=           0
         NMat0=    1 NMatS0=      1 NMatT0=    0 NMatD0=    1 NMtDS0=    0 NMtDT0=    0
 Petite list used in FoFCou.
 Harris En= -76.0964817520716    
 JPrj=0 DoOrth=F DoCkMO=F.
 Initial guess orbital symmetries:
       Occupied  (A1) (A1) (B2) (A1) (B1)
       Virtual   (A1) (B2) (B2) (A1) (B1) (A1) (B2) (A1) (A1) (A2)
                 (B1) (A1) (B2) (A1)
 The electronic state of the initial guess is 1-A1.
 Leave Link  401 at Wed Feb  8 15:04:44 2023, MaxMem=   754974720 cpu:               0.8 elap:               0.2
 (Enter /opt/cluster/programs/g16-c.01/g16/l502.exe)
 Keep R1 ints in memory in symmetry-blocked form, NReq=845815.
 FoFCou: FMM=F IPFlag=           0 FMFlag=           0 FMFlg1=           0
         NFxFlg=           0 DoJE=F BraDBF=F KetDBF=F FulRan=T
         wScrn=  0.000000 ICntrl=       600 IOpCl=  0 I1Cent=           0 NGrid=           0
         NMat0=    1 NMatS0=    190 NMatT0=    0 NMatD0=    1 NMtDS0=    0 NMtDT0=    0
 Petite list used in FoFCou.
 Closed shell SCF:
 Using DIIS extrapolation, IDIIS=  1040.
 NGot=   754974720 LenX=   754966727 LenY=   754965845
 Requested convergence on RMS density matrix=1.00D-08 within 200 cycles.
 Requested convergence on MAX density matrix=1.00D-06.
 Requested convergence on             energy=1.00D-06.
 No special actions if energy rises.

 Cycle   1  Pass 1  IDiag  1:
 E= -75.9157091689054    
 DIIS: error= 8.24D-02 at cycle   1 NSaved=   1.
 NSaved= 1 IEnMin= 1 EnMin= -75.9157091689054     IErMin= 1 ErrMin= 8.24D-02
 ErrMax= 8.24D-02  0.00D+00 EMaxC= 1.00D-01 BMatC= 1.41D-01 BMatP= 1.41D-01
 IDIUse=3 WtCom= 1.76D-01 WtEn= 8.24D-01
 Coeff-Com:  0.100D+01
 Coeff-En:   0.100D+01
 Coeff:      0.100D+01
 Gap=     0.597 Goal=   None    Shift=    0.000
 GapD=    0.597 DampG=2.000 DampE=0.500 DampFc=1.0000 IDamp=-1.
 RMSDP=1.59D-02 MaxDP=1.24D-01              OVMax= 1.26D-01

 Cycle   2  Pass 1  IDiag  1:
 E= -75.9774021776613     Delta-E=       -0.061693008756 Rises=F Damp=F
 DIIS: error= 5.08D-02 at cycle   2 NSaved=   2.
 NSaved= 2 IEnMin= 2 EnMin= -75.9774021776613     IErMin= 2 ErrMin= 5.08D-02
 ErrMax= 5.08D-02  0.00D+00 EMaxC= 1.00D-01 BMatC= 4.12D-02 BMatP= 1.41D-01
 IDIUse=3 WtCom= 4.92D-01 WtEn= 5.08D-01
 Coeff-Com:  0.333D+00 0.667D+00
 Coeff-En:   0.660D-01 0.934D+00
 Coeff:      0.197D+00 0.803D+00
 Gap=     0.748 Goal=   None    Shift=    0.000
 RMSDP=7.65D-03 MaxDP=5.94D-02 DE=-6.17D-02 OVMax= 4.89D-02

 Cycle   3  Pass 1  IDiag  1:
 E= -76.0021720613386     Delta-E=       -0.024769883677 Rises=F Damp=F
 DIIS: error= 1.27D-02 at cycle   3 NSaved=   3.
 NSaved= 3 IEnMin= 3 EnMin= -76.0021720613386     IErMin= 3 ErrMin= 1.27D-02
 ErrMax= 1.27D-02  0.00D+00 EMaxC= 1.00D-01 BMatC= 2.63D-03 BMatP= 4.12D-02
 IDIUse=3 WtCom= 8.73D-01 WtEn= 1.27D-01
 Coeff-Com: -0.256D-01 0.175D+00 0.851D+00
 Coeff-En:   0.000D+00 0.000D+00 0.100D+01
 Coeff:     -0.223D-01 0.152D+00 0.870D+00
 Gap=     0.718 Goal=   None    Shift=    0.000
 RMSDP=1.58D-03 MaxDP=1.25D-02 DE=-2.48D-02 OVMax= 1.32D-02

 Cycle   4  Pass 1  IDiag  1:
 E= -76.0040096987042     Delta-E=       -0.001837637366 Rises=F Damp=F
 DIIS: error= 1.46D-03 at cycle   4 NSaved=   4.
 NSaved= 4 IEnMin= 4 EnMin= -76.0040096987042     IErMin= 4 ErrMin= 1.46D-03
 ErrMax= 1.46D-03  0.00D+00 EMaxC= 1.00D-01 BMatC= 2.28D-05 BMatP= 2.63D-03
 IDIUse=3 WtCom= 9.85D-01 WtEn= 1.46D-02
 Coeff-Com:  0.610D-02-0.774D-01-0.235D+00 0.131D+01
 Coeff-En:   0.000D+00 0.000D+00 0.000D+00 0.100D+01
 Coeff:      0.601D-02-0.763D-01-0.231D+00 0.130D+01
 Gap=     0.722 Goal=   None    Shift=    0.000
 RMSDP=1.99D-04 MaxDP=1.88D-03 DE=-1.84D-03 OVMax= 1.52D-03

 Cycle   5  Pass 1  IDiag  1:
 E= -76.0040287268992     Delta-E=       -0.000019028195 Rises=F Damp=F
 DIIS: error= 1.20D-04 at cycle   5 NSaved=   5.
 NSaved= 5 IEnMin= 5 EnMin= -76.0040287268992     IErMin= 5 ErrMin= 1.20D-04
 ErrMax= 1.20D-04  0.00D+00 EMaxC= 1.00D-01 BMatC= 1.05D-07 BMatP= 2.28D-05
 IDIUse=3 WtCom= 9.99D-01 WtEn= 1.20D-03
 Coeff-Com: -0.466D-03 0.107D-01 0.255D-01-0.263D+00 0.123D+01
 Coeff-En:   0.000D+00 0.000D+00 0.000D+00 0.000D+00 0.100D+01
 Coeff:     -0.465D-03 0.107D-01 0.254D-01-0.262D+00 0.123D+01
 Gap=     0.722 Goal=   None    Shift=    0.000
 RMSDP=3.51D-05 MaxDP=2.31D-04 DE=-1.90D-05 OVMax= 2.85D-04

 Cycle   6  Pass 1  IDiag  1:
 E= -76.0040289770529     Delta-E=       -0.000000250154 Rises=F Damp=F
 DIIS: error= 1.89D-05 at cycle   6 NSaved=   6.
 NSaved= 6 IEnMin= 6 EnMin= -76.0040289770529     IErMin= 6 ErrMin= 1.89D-05
 ErrMax= 1.89D-05  0.00D+00 EMaxC= 1.00D-01 BMatC= 3.40D-09 BMatP= 1.05D-07
 IDIUse=1 WtCom= 1.00D+00 WtEn= 0.00D+00
 Coeff-Com: -0.153D-03 0.108D-02 0.455D-02-0.370D-02-0.238D+00 0.124D+01
 Coeff:     -0.153D-03 0.108D-02 0.455D-02-0.370D-02-0.238D+00 0.124D+01
 Gap=     0.722 Goal=   None    Shift=    0.000
 RMSDP=7.75D-06 MaxDP=4.43D-05 DE=-2.50D-07 OVMax= 6.16D-05

 Cycle   7  Pass 1  IDiag  1:
 E= -76.0040289853601     Delta-E=       -0.000000008307 Rises=F Damp=F
 DIIS: error= 2.64D-06 at cycle   7 NSaved=   7.
 NSaved= 7 IEnMin= 7 EnMin= -76.0040289853601     IErMin= 7 ErrMin= 2.64D-06
 ErrMax= 2.64D-06  0.00D+00 EMaxC= 1.00D-01 BMatC= 1.00D-10 BMatP= 3.40D-09
 IDIUse=1 WtCom= 1.00D+00 WtEn= 0.00D+00
 Coeff-Com:  0.610D-04-0.636D-03-0.218D-02 0.830D-02 0.493D-01-0.394D+00
 Coeff-Com:  0.134D+01
 Coeff:      0.610D-04-0.636D-03-0.218D-02 0.830D-02 0.493D-01-0.394D+00
 Coeff:      0.134D+01
 Gap=     0.722 Goal=   None    Shift=    0.000
 RMSDP=8.82D-07 MaxDP=7.92D-06 DE=-8.31D-09 OVMax= 7.96D-06

 Cycle   8  Pass 1  IDiag  1:
 E= -76.0040289855769     Delta-E=       -0.000000000217 Rises=F Damp=F
 DIIS: error= 6.14D-07 at cycle   8 NSaved=   8.
 NSaved= 8 IEnMin= 8 EnMin= -76.0040289855769     IErMin= 8 ErrMin= 6.14D-07
 ErrMax= 6.14D-07  0.00D+00 EMaxC= 1.00D-01 BMatC= 3.19D-12 BMatP= 1.00D-10
 IDIUse=1 WtCom= 1.00D+00 WtEn= 0.00D+00
 Coeff-Com: -0.781D-05 0.113D-03 0.338D-03-0.214D-02 0.772D-03 0.347D-01
 Coeff-Com: -0.300D+00 0.127D+01
 Coeff:     -0.781D-05 0.113D-03 0.338D-03-0.214D-02 0.772D-03 0.347D-01
 Coeff:     -0.300D+00 0.127D+01
 Gap=     0.722 Goal=   None    Shift=    0.000
 RMSDP=1.83D-07 MaxDP=1.21D-06 DE=-2.17D-10 OVMax= 1.50D-06

 Cycle   9  Pass 1  IDiag  1:
 E= -76.0040289855844     Delta-E=       -0.000000000007 Rises=F Damp=F
 DIIS: error= 7.09D-08 at cycle   9 NSaved=   9.
 NSaved= 9 IEnMin= 9 EnMin= -76.0040289855844     IErMin= 9 ErrMin= 7.09D-08
 ErrMax= 7.09D-08  0.00D+00 EMaxC= 1.00D-01 BMatC= 7.28D-14 BMatP= 3.19D-12
 IDIUse=1 WtCom= 1.00D+00 WtEn= 0.00D+00
 Coeff-Com:  0.567D-06-0.163D-04-0.405D-04 0.422D-03-0.162D-02-0.112D-03
 Coeff-Com:  0.587D-01-0.401D+00 0.134D+01
 Coeff:      0.567D-06-0.163D-04-0.405D-04 0.422D-03-0.162D-02-0.112D-03
 Coeff:      0.587D-01-0.401D+00 0.134D+01
 Gap=     0.722 Goal=   None    Shift=    0.000
 RMSDP=3.93D-08 MaxDP=2.50D-07 DE=-7.47D-12 OVMax= 3.43D-07

 Cycle  10  Pass 1  IDiag  1:
 E= -76.0040289855847     Delta-E=       -0.000000000000 Rises=F Damp=F
 DIIS: error= 9.90D-09 at cycle  10 NSaved=  10.
 NSaved=10 IEnMin=10 EnMin= -76.0040289855847     IErMin=10 ErrMin= 9.90D-09
 ErrMax= 9.90D-09  0.00D+00 EMaxC= 1.00D-01 BMatC= 1.26D-15 BMatP= 7.28D-14
 IDIUse=1 WtCom= 1.00D+00 WtEn= 0.00D+00
 Coeff-Com:  0.118D-07 0.180D-05 0.355D-05-0.643D-04 0.377D-03-0.622D-03
 Coeff-Com: -0.766D-02 0.608D-01-0.267D+00 0.121D+01
 Coeff:      0.118D-07 0.180D-05 0.355D-05-0.643D-04 0.377D-03-0.622D-03
 Coeff:     -0.766D-02 0.608D-01-0.267D+00 0.121D+01
 Gap=     0.722 Goal=   None    Shift=    0.000
 RMSDP=3.47D-09 MaxDP=1.71D-08 DE=-2.84D-13 OVMax= 3.28D-08

 SCF Done:  E(RHF) =  -76.0040289856     A.U. after   10 cycles
            NFock= 10  Conv=0.35D-08     -V/T= 1.9995
 KE= 7.604549203886D+01 PE=-1.999636567085D+02 EE= 3.820938022087D+01
 Leave Link  502 at Wed Feb  8 15:04:44 2023, MaxMem=   754974720 cpu:               0.6 elap:               0.2
 (Enter /opt/cluster/programs/g16-c.01/g16/l601.exe)
 Copying SCF densities to generalized density rwf, IOpCl= 0 IROHF=0.

 **********************************************************************

            Population analysis using the SCF Density.

 **********************************************************************

 Orbital symmetries:
       Occupied  (A1) (A1) (B2) (A1) (B1)
       Virtual   (A1) (B2) (B2) (A1) (B1) (A1) (B2) (A1) (A1) (A2)
                 (B1) (A1) (B2) (A1)
 The electronic state is 1-A1.
 Alpha  occ. eigenvalues --  -20.55468  -1.37666  -0.71667  -0.59715  -0.50455
 Alpha virt. eigenvalues --    0.21767   0.31676   1.01025   1.13248   1.16560
 Alpha virt. eigenvalues --    1.26988   1.39515   1.46630   1.98463   2.02950
 Alpha virt. eigenvalues --    2.04911   2.69773   3.00528   3.97869
          Condensed to atoms (all electrons):
               1          2          3
     1  O    8.297618   0.276985   0.276985
     2  H    0.276985   0.322454  -0.025232
     3  H    0.276985  -0.025232   0.322454
 Mulliken charges:
               1
     1  O   -0.851587
     2  H    0.425794
     3  H    0.425794
 Sum of Mulliken charges =   0.00000
 Mulliken charges with hydrogens summed into heavy atoms:
               1
     1  O    0.000000
 Electronic spatial extent (au):  <R**2>=             18.3463
 Charge=              0.0000 electrons
 Dipole moment (field-independent basis, Debye):
    X=             -0.0000    Y=             -0.0000    Z=             -2.3139  Tot=              2.3139
 Quadrupole moment (field-independent basis, Debye-Ang):
   XX=             -7.1266   YY=             -4.5671   ZZ=             -5.7497
   XY=              0.0000   XZ=              0.0000   YZ=              0.0000
 Traceless Quadrupole moment (field-independent basis, Debye-Ang):
   XX=             -1.3121   YY=              1.2473   ZZ=              0.0648
   XY=              0.0000   XZ=              0.0000   YZ=              0.0000
 Octapole moment (field-independent basis, Debye-Ang**2):
  XXX=              0.0000  YYY=              0.0000  ZZZ=             -1.6254  XYY=             -0.0000
  XXY=              0.0000  XXZ=             -0.4378  XZZ=             -0.0000  YZZ=              0.0000
  YYZ=             -1.2021  XYZ=             -0.0000
 Hexadecapole moment (field-independent basis, Debye-Ang**3):
 XXXX=             -5.0964 YYYY=             -5.3689 ZZZZ=             -5.8514 XXXY=             -0.0000
 XXXZ=             -0.0000 YYYX=             -0.0000 YYYZ=              0.0000 ZZZX=             -0.0000
 ZZZY=             -0.0000 XXYY=             -1.9051 XXZZ=             -1.8821 YYZZ=             -1.5428
 XXYZ=             -0.0000 YYXZ=              0.0000 ZZXY=              0.0000
 N-N= 9.704755463213D+00 E-N=-1.999636567966D+02  KE= 7.604549203886D+01
 Symmetry A1   KE= 6.780393841256D+01
 Symmetry A2   KE= 3.521931349710D-35
 Symmetry B1   KE= 4.556903629810D+00
 Symmetry B2   KE= 3.684649996499D+00
 No NMR shielding tensors so no spin-rotation constants.
 Leave Link  601 at Wed Feb  8 15:04:46 2023, MaxMem=   754974720 cpu:               1.4 elap:               0.5
 (Enter /opt/cluster/programs/g16-c.01/g16/l9999.exe)
 Unable to Open any file for archive entry.
 1\1\GINC-NODE63\SP\RHF\6-31G(d)\H2O1\BOITTIER\08-Feb-2023\0\\#P HF/6-3
 1g* scf(maxcycle=200)\\Gaussian input\\0,1\O,0,0.,0.11751,0.\H,0,0.718
 3372325,-0.4395112028,0.\H,0,-0.6341906211,-0.5337067505,0.\\Version=E
 S64L-G16RevC.01\State=1-A1\HF=-76.004029\RMSD=3.471e-09\Dipole=0.06324
 65,-0.908139,0.\Quadrupole=0.9231293,0.0524126,-0.9755419,0.0609358,0.
 ,0.\PG=C02V [C2(O1),SGV(H2)]\\@
 The archive entry for this job was punched.


 Age does not diminish the extreme disappointment of
 having a scoop of ice cream fall from the cone.
 -- Jim Fiebig
 Job cpu time:       0 days  0 hours  0 minutes  5.6 seconds.
 Elapsed time:       0 days  0 hours  0 minutes  1.9 seconds.
 File lengths (MBytes):  RWF=      6 Int=      0 D2E=      0 Chk=      1 Scr=      1
 Normal termination of Gaussian 16 at Wed Feb  8 15:04:47 2023.
