 Entering Gaussian System, Link 0=/opt/cluster/programs/g16-c.01/g16/g16
 Input=/scratch/boittier/jobs/tmp.7311999/gaussian_171_water_hf_adz2.com
 Output=/scratch/boittier/jobs/tmp.7311999/gaussian_171_water_hf_adz2.out
 Initial command:
 /opt/cluster/programs/g16-c.01/g16/l1.exe "/scratch/boittier/jobs/tmp.7311999/Gau-192591.inp" -scrdir="/scratch/boittier/jobs/tmp.7311999/"
 Entering Link 1 = /opt/cluster/programs/g16-c.01/g16/l1.exe PID=    192592.
  
 Copyright (c) 1988-2019, Gaussian, Inc.  All Rights Reserved.
  
 This is part of the Gaussian(R) 16 program.  It is based on
 the Gaussian(R) 09 system (copyright 2009, Gaussian, Inc.),
 the Gaussian(R) 03 system (copyright 2003, Gaussian, Inc.),
 the Gaussian(R) 98 system (copyright 1998, Gaussian, Inc.),
 the Gaussian(R) 94 system (copyright 1995, Gaussian, Inc.),
 the Gaussian 92(TM) system (copyright 1992, Gaussian, Inc.),
 the Gaussian 90(TM) system (copyright 1990, Gaussian, Inc.),
 the Gaussian 88(TM) system (copyright 1988, Gaussian, Inc.),
 the Gaussian 86(TM) system (copyright 1986, Carnegie Mellon
 University), and the Gaussian 82(TM) system (copyright 1983,
 Carnegie Mellon University). Gaussian is a federally registered
 trademark of Gaussian, Inc.
  
 This software contains proprietary and confidential information,
 including trade secrets, belonging to Gaussian, Inc.
  
 This software is provided under written license and may be
 used, copied, transmitted, or stored only in accord with that
 written license.
  
 The following legend is applicable only to US Government
 contracts under FAR:
  
                    RESTRICTED RIGHTS LEGEND
  
 Use, reproduction and disclosure by the US Government is
 subject to restrictions as set forth in subparagraphs (a)
 and (c) of the Commercial Computer Software - Restricted
 Rights clause in FAR 52.227-19.
  
 Gaussian, Inc.
 340 Quinnipiac St., Bldg. 40, Wallingford CT 06492
  
  
 ---------------------------------------------------------------
 Warning -- This program may not be used in any manner that
 competes with the business of Gaussian, Inc. or will provide
 assistance to any competitor of Gaussian, Inc.  The licensee
 of this program is prohibited from giving any competitor of
 Gaussian, Inc. access to this program.  By using this program,
 the user acknowledges that Gaussian, Inc. is engaged in the
 business of creating and licensing software in the field of
 computational chemistry and represents and warrants to the
 licensee that it is not a competitor of Gaussian, Inc. and that
 it will not use this program in any manner prohibited above.
 ---------------------------------------------------------------
  

 Cite this work as:
 Gaussian 16, Revision C.01,
 M. J. Frisch, G. W. Trucks, H. B. Schlegel, G. E. Scuseria, 
 M. A. Robb, J. R. Cheeseman, G. Scalmani, V. Barone, 
 G. A. Petersson, H. Nakatsuji, X. Li, M. Caricato, A. V. Marenich, 
 J. Bloino, B. G. Janesko, R. Gomperts, B. Mennucci, H. P. Hratchian, 
 J. V. Ortiz, A. F. Izmaylov, J. L. Sonnenberg, D. Williams-Young, 
 F. Ding, F. Lipparini, F. Egidi, J. Goings, B. Peng, A. Petrone, 
 T. Henderson, D. Ranasinghe, V. G. Zakrzewski, J. Gao, N. Rega, 
 G. Zheng, W. Liang, M. Hada, M. Ehara, K. Toyota, R. Fukuda, 
 J. Hasegawa, M. Ishida, T. Nakajima, Y. Honda, O. Kitao, H. Nakai, 
 T. Vreven, K. Throssell, J. A. Montgomery, Jr., J. E. Peralta, 
 F. Ogliaro, M. J. Bearpark, J. J. Heyd, E. N. Brothers, K. N. Kudin, 
 V. N. Staroverov, T. A. Keith, R. Kobayashi, J. Normand, 
 K. Raghavachari, A. P. Rendell, J. C. Burant, S. S. Iyengar, 
 J. Tomasi, M. Cossi, J. M. Millam, M. Klene, C. Adamo, R. Cammi, 
 J. W. Ochterski, R. L. Martin, K. Morokuma, O. Farkas, 
 J. B. Foresman, and D. J. Fox, Gaussian, Inc., Wallingford CT, 2019.
 
 ******************************************
 Gaussian 16:  ES64L-G16RevC.01  3-Jul-2019
                20-Feb-2023 
 ******************************************
 %nproc=4
 Will use up to    4 processors via shared memory.
 %mem=5760MB
 %chk=gaussian_171_water_hf_adz2.chk
 -----------------------------------
 #P HF/aug-cc-pVDZ scf(maxcycle=200)
 -----------------------------------
 1/38=1,172=1/1;
 2/12=2,17=6,18=5,40=1/2;
 3/5=16,7=10,11=9,25=1,30=1/1,2,3;
 4//1;
 5/5=2,7=200,38=5/2;
 6/7=2,8=2,9=2,10=2,28=1/1;
 99/5=1,9=1/99;
 Leave Link    1 at Mon Feb 20 10:17:28 2023, MaxMem=   754974720 cpu:               0.2 elap:               0.1
 (Enter /opt/cluster/programs/g16-c.01/g16/l101.exe)
 --------------
 Gaussian input
 --------------
 Symbolic Z-matrix:
 Charge =  0 Multiplicity = 1
 O                     0.        0.11751   0. 
 H                     0.79736  -0.50079   0. 
 H                    -0.81879  -0.47212   0. 
 
 ITRead=  0  0  0
 MicOpt= -1 -1 -1
 NAtoms=      3 NQM=        3 NQMF=       0 NMMI=      0 NMMIF=      0
                NMic=       0 NMicF=      0.
                    Isotopes and Nuclear Properties:
 (Nuclear quadrupole moments (NQMom) in fm**2, nuclear magnetic moments (NMagM)
  in nuclear magnetons)

  Atom         1           2           3
 IAtWgt=          16           1           1
 AtmWgt=  15.9949146   1.0078250   1.0078250
 NucSpn=           0           1           1
 AtZEff=  -0.0000000  -0.0000000  -0.0000000
 NQMom=    0.0000000   0.0000000   0.0000000
 NMagM=    0.0000000   2.7928460   2.7928460
 AtZNuc=   8.0000000   1.0000000   1.0000000
 Leave Link  101 at Mon Feb 20 10:17:28 2023, MaxMem=   754974720 cpu:               0.4 elap:               0.3
 (Enter /opt/cluster/programs/g16-c.01/g16/l202.exe)
                          Input orientation:                          
 ---------------------------------------------------------------------
 Center     Atomic      Atomic             Coordinates (Angstroms)
 Number     Number       Type             X           Y           Z
 ---------------------------------------------------------------------
      1          8           0        0.000000    0.117510    0.000000
      2          1           0        0.797362   -0.500790    0.000000
      3          1           0       -0.818787   -0.472125    0.000000
 ---------------------------------------------------------------------
                    Distance matrix (angstroms):
                    1          2          3
     1  O    0.000000
     2  H    1.009000   0.000000
     3  H    1.009000   1.616403   0.000000
 Stoichiometry    H2O
 Framework group  C2V[C2(O),SGV(H2)]
 Deg. of freedom     2
 Full point group                 C2V     NOp   4
 Largest Abelian subgroup         C2V     NOp   4
 Largest concise Abelian subgroup C2      NOp   2
                         Standard orientation:                         
 ---------------------------------------------------------------------
 Center     Atomic      Atomic             Coordinates (Angstroms)
 Number     Number       Type             X           Y           Z
 ---------------------------------------------------------------------
      1          8           0        0.000000    0.000000    0.120812
      2          1           0        0.000000    0.808202   -0.483250
      3          1           0       -0.000000   -0.808202   -0.483250
 ---------------------------------------------------------------------
 Rotational constants (GHZ):         773.7205107         383.8509739         256.5659016
 Leave Link  202 at Mon Feb 20 10:17:28 2023, MaxMem=   754974720 cpu:               0.2 elap:               0.1
 (Enter /opt/cluster/programs/g16-c.01/g16/l301.exe)
 Standard basis: Aug-CC-pVDZ (5D, 7F)
 Ernie: Thresh=  0.10000D-02 Tol=  0.10000D-05 Strict=F.
 Ernie:  2 primitive shells out of 39 were deleted.
 There are    20 symmetry adapted cartesian basis functions of A1  symmetry.
 There are     4 symmetry adapted cartesian basis functions of A2  symmetry.
 There are     7 symmetry adapted cartesian basis functions of B1  symmetry.
 There are    12 symmetry adapted cartesian basis functions of B2  symmetry.
 There are    18 symmetry adapted basis functions of A1  symmetry.
 There are     4 symmetry adapted basis functions of A2  symmetry.
 There are     7 symmetry adapted basis functions of B1  symmetry.
 There are    12 symmetry adapted basis functions of B2  symmetry.
    41 basis functions,    65 primitive gaussians,    43 cartesian basis functions
     5 alpha electrons        5 beta electrons
       nuclear repulsion energy         8.7186930145 Hartrees.
 IExCor=    0 DFT=F Ex=HF Corr=None ExCW=0 ScaHFX=  1.000000
 ScaDFX=  1.000000  1.000000  1.000000  1.000000 ScalE2=  1.000000  1.000000
 IRadAn=      5 IRanWt=     -1 IRanGd=            0 ICorTp=0 IEmpDi=  4
 NAtoms=    3 NActive=    3 NUniq=    2 SFac= 2.25D+00 NAtFMM=   60 NAOKFM=F Big=F
 Integral buffers will be    131072 words long.
 Raffenetti 1 integral format.
 Two-electron integral symmetry is turned on.
 Leave Link  301 at Mon Feb 20 10:17:28 2023, MaxMem=   754974720 cpu:               0.3 elap:               0.2
 (Enter /opt/cluster/programs/g16-c.01/g16/l302.exe)
 NPDir=0 NMtPBC=     1 NCelOv=     1 NCel=       1 NClECP=     1 NCelD=      1
         NCelK=      1 NCelE2=     1 NClLst=     1 CellRange=     0.0.
 One-electron integrals computed using PRISM.
 One-electron integral symmetry used in STVInt
 NBasis=    41 RedAO= T EigKep=  3.25D-03  NBF=    18     4     7    12
 NBsUse=    41 1.00D-06 EigRej= -1.00D+00 NBFU=    18     4     7    12
 Leave Link  302 at Mon Feb 20 10:17:28 2023, MaxMem=   754974720 cpu:               0.4 elap:               0.1
 (Enter /opt/cluster/programs/g16-c.01/g16/l303.exe)
 DipDrv:  MaxL=1.
 Leave Link  303 at Mon Feb 20 10:17:29 2023, MaxMem=   754974720 cpu:               0.2 elap:               0.1
 (Enter /opt/cluster/programs/g16-c.01/g16/l401.exe)
 ExpMin= 2.97D-02 ExpMax= 1.17D+04 ExpMxC= 4.01D+02 IAcc=3 IRadAn=         5 AccDes= 0.00D+00
 Harris functional with IExCor=  205 and IRadAn=       5 diagonalized for initial guess.
 HarFok:  IExCor=  205 AccDes= 0.00D+00 IRadAn=         5 IDoV= 1 UseB2=F ITyADJ=14
 ICtDFT=  3500011 ScaDFX=  1.000000  1.000000  1.000000  1.000000
 FoFCou: FMM=F IPFlag=           0 FMFlag=      100000 FMFlg1=           0
         NFxFlg=           0 DoJE=T BraDBF=F KetDBF=T FulRan=T
         wScrn=  0.000000 ICntrl=       500 IOpCl=  0 I1Cent=   200000004 NGrid=           0
         NMat0=    1 NMatS0=      1 NMatT0=    0 NMatD0=    1 NMtDS0=    0 NMtDT0=    0
 Petite list used in FoFCou.
 Harris En= -76.1191246176450    
 JPrj=0 DoOrth=F DoCkMO=F.
 Initial guess orbital symmetries:
       Occupied  (A1) (A1) (B2) (A1) (B1)
       Virtual   (A1) (B2) (A1) (B1) (B2) (A1) (B2) (A1) (A2) (A1)
                 (B1) (B2) (A1) (B2) (B2) (A1) (B1) (A1) (A2) (A1)
                 (B1) (B2) (A1) (B2) (A2) (B1) (B2) (A1) (A1) (B2)
                 (A1) (B1) (A1) (A2) (A1) (B2)
 The electronic state of the initial guess is 1-A1.
 Leave Link  401 at Mon Feb 20 10:17:29 2023, MaxMem=   754974720 cpu:               0.5 elap:               0.2
 (Enter /opt/cluster/programs/g16-c.01/g16/l502.exe)
 Keep R1 ints in memory in symmetry-blocked form, NReq=1211474.
 FoFCou: FMM=F IPFlag=           0 FMFlag=           0 FMFlg1=           0
         NFxFlg=           0 DoJE=F BraDBF=F KetDBF=F FulRan=T
         wScrn=  0.000000 ICntrl=       600 IOpCl=  0 I1Cent=           0 NGrid=           0
         NMat0=    1 NMatS0=    861 NMatT0=    0 NMatD0=    1 NMtDS0=    0 NMtDT0=    0
 Petite list used in FoFCou.
 Closed shell SCF:
 Using DIIS extrapolation, IDIIS=  1040.
 NGot=   754974720 LenX=   754868251 LenY=   754865961
 Requested convergence on RMS density matrix=1.00D-08 within 200 cycles.
 Requested convergence on MAX density matrix=1.00D-06.
 Requested convergence on             energy=1.00D-06.
 No special actions if energy rises.

 Cycle   1  Pass 1  IDiag  1:
 E= -75.9614655939794    
 DIIS: error= 4.86D-02 at cycle   1 NSaved=   1.
 NSaved= 1 IEnMin= 1 EnMin= -75.9614655939794     IErMin= 1 ErrMin= 4.86D-02
 ErrMax= 4.86D-02  0.00D+00 EMaxC= 1.00D-01 BMatC= 1.09D-01 BMatP= 1.09D-01
 IDIUse=3 WtCom= 5.14D-01 WtEn= 4.86D-01
 Coeff-Com:  0.100D+01
 Coeff-En:   0.100D+01
 Coeff:      0.100D+01
 Gap=     0.460 Goal=   None    Shift=    0.000
 GapD=    0.460 DampG=2.000 DampE=0.500 DampFc=1.0000 IDamp=-1.
 RMSDP=6.06D-03 MaxDP=1.12D-01              OVMax= 1.21D-01

 Cycle   2  Pass 1  IDiag  1:
 E= -76.0007347164680     Delta-E=       -0.039269122489 Rises=F Damp=F
 DIIS: error= 4.09D-02 at cycle   2 NSaved=   2.
 NSaved= 2 IEnMin= 2 EnMin= -76.0007347164680     IErMin= 2 ErrMin= 4.09D-02
 ErrMax= 4.09D-02  0.00D+00 EMaxC= 1.00D-01 BMatC= 4.56D-02 BMatP= 1.09D-01
 IDIUse=3 WtCom= 5.91D-01 WtEn= 4.09D-01
 Coeff-Com:  0.382D+00 0.618D+00
 Coeff-En:   0.243D+00 0.757D+00
 Coeff:      0.325D+00 0.675D+00
 Gap=     0.555 Goal=   None    Shift=    0.000
 RMSDP=2.94D-03 MaxDP=5.42D-02 DE=-3.93D-02 OVMax= 5.92D-02

 Cycle   3  Pass 1  IDiag  1:
 E= -76.0326739874585     Delta-E=       -0.031939270990 Rises=F Damp=F
 DIIS: error= 4.48D-03 at cycle   3 NSaved=   3.
 NSaved= 3 IEnMin= 3 EnMin= -76.0326739874585     IErMin= 3 ErrMin= 4.48D-03
 ErrMax= 4.48D-03  0.00D+00 EMaxC= 1.00D-01 BMatC= 1.07D-03 BMatP= 4.56D-02
 IDIUse=3 WtCom= 9.55D-01 WtEn= 4.48D-02
 Coeff-Com: -0.390D-01 0.879D-01 0.951D+00
 Coeff-En:   0.000D+00 0.000D+00 0.100D+01
 Coeff:     -0.372D-01 0.840D-01 0.953D+00
 Gap=     0.537 Goal=   None    Shift=    0.000
 RMSDP=4.61D-04 MaxDP=8.28D-03 DE=-3.19D-02 OVMax= 9.72D-03

 Cycle   4  Pass 1  IDiag  1:
 E= -76.0335280737386     Delta-E=       -0.000854086280 Rises=F Damp=F
 DIIS: error= 7.82D-04 at cycle   4 NSaved=   4.
 NSaved= 4 IEnMin= 4 EnMin= -76.0335280737386     IErMin= 4 ErrMin= 7.82D-04
 ErrMax= 7.82D-04  0.00D+00 EMaxC= 1.00D-01 BMatC= 9.46D-06 BMatP= 1.07D-03
 IDIUse=3 WtCom= 9.92D-01 WtEn= 7.82D-03
 Coeff-Com:  0.876D-02-0.428D-01-0.332D+00 0.137D+01
 Coeff-En:   0.000D+00 0.000D+00 0.000D+00 0.100D+01
 Coeff:      0.870D-02-0.425D-01-0.330D+00 0.136D+01
 Gap=     0.539 Goal=   None    Shift=    0.000
 RMSDP=1.26D-04 MaxDP=1.48D-03 DE=-8.54D-04 OVMax= 2.43D-03

 Cycle   5  Pass 1  IDiag  1:
 E= -76.0335523022720     Delta-E=       -0.000024228533 Rises=F Damp=F
 DIIS: error= 2.17D-04 at cycle   5 NSaved=   5.
 NSaved= 5 IEnMin= 5 EnMin= -76.0335523022720     IErMin= 5 ErrMin= 2.17D-04
 ErrMax= 2.17D-04  0.00D+00 EMaxC= 1.00D-01 BMatC= 4.48D-07 BMatP= 9.46D-06
 IDIUse=3 WtCom= 9.98D-01 WtEn= 2.17D-03
 Coeff-Com:  0.332D-03 0.238D-02 0.140D-01-0.259D+00 0.124D+01
 Coeff-En:   0.000D+00 0.000D+00 0.000D+00 0.000D+00 0.100D+01
 Coeff:      0.332D-03 0.237D-02 0.140D-01-0.258D+00 0.124D+01
 Gap=     0.539 Goal=   None    Shift=    0.000
 RMSDP=3.12D-05 MaxDP=4.85D-04 DE=-2.42D-05 OVMax= 6.65D-04

 Cycle   6  Pass 1  IDiag  1:
 E= -76.0335537093251     Delta-E=       -0.000001407053 Rises=F Damp=F
 DIIS: error= 4.37D-05 at cycle   6 NSaved=   6.
 NSaved= 6 IEnMin= 6 EnMin= -76.0335537093251     IErMin= 6 ErrMin= 4.37D-05
 ErrMax= 4.37D-05  0.00D+00 EMaxC= 1.00D-01 BMatC= 1.87D-08 BMatP= 4.48D-07
 IDIUse=1 WtCom= 1.00D+00 WtEn= 0.00D+00
 Coeff-Com: -0.443D-03 0.152D-02 0.127D-01-0.187D-01-0.255D+00 0.126D+01
 Coeff:     -0.443D-03 0.152D-02 0.127D-01-0.187D-01-0.255D+00 0.126D+01
 Gap=     0.539 Goal=   None    Shift=    0.000
 RMSDP=5.87D-06 MaxDP=1.21D-04 DE=-1.41D-06 OVMax= 1.60D-04

 Cycle   7  Pass 1  IDiag  1:
 E= -76.0335537693761     Delta-E=       -0.000000060051 Rises=F Damp=F
 DIIS: error= 7.50D-06 at cycle   7 NSaved=   7.
 NSaved= 7 IEnMin= 7 EnMin= -76.0335537693761     IErMin= 7 ErrMin= 7.50D-06
 ErrMax= 7.50D-06  0.00D+00 EMaxC= 1.00D-01 BMatC= 8.14D-10 BMatP= 1.87D-08
 IDIUse=1 WtCom= 1.00D+00 WtEn= 0.00D+00
 Coeff-Com:  0.158D-03-0.698D-03-0.590D-02 0.214D-01 0.367D-01-0.443D+00
 Coeff-Com:  0.139D+01
 Coeff:      0.158D-03-0.698D-03-0.590D-02 0.214D-01 0.367D-01-0.443D+00
 Coeff:      0.139D+01
 Gap=     0.539 Goal=   None    Shift=    0.000
 RMSDP=1.11D-06 MaxDP=2.18D-05 DE=-6.01D-08 OVMax= 3.18D-05

 Cycle   8  Pass 1  IDiag  1:
 E= -76.0335537715521     Delta-E=       -0.000000002176 Rises=F Damp=F
 DIIS: error= 1.04D-06 at cycle   8 NSaved=   8.
 NSaved= 8 IEnMin= 8 EnMin= -76.0335537715521     IErMin= 8 ErrMin= 1.04D-06
 ErrMax= 1.04D-06  0.00D+00 EMaxC= 1.00D-01 BMatC= 2.43D-11 BMatP= 8.14D-10
 IDIUse=1 WtCom= 1.00D+00 WtEn= 0.00D+00
 Coeff-Com: -0.357D-04 0.173D-03 0.154D-02-0.687D-02-0.228D-02 0.105D+00
 Coeff-Com: -0.478D+00 0.138D+01
 Coeff:     -0.357D-04 0.173D-03 0.154D-02-0.687D-02-0.228D-02 0.105D+00
 Coeff:     -0.478D+00 0.138D+01
 Gap=     0.539 Goal=   None    Shift=    0.000
 RMSDP=2.58D-07 MaxDP=3.48D-06 DE=-2.18D-09 OVMax= 4.95D-06

 Cycle   9  Pass 1  IDiag  1:
 E= -76.0335537716155     Delta-E=       -0.000000000063 Rises=F Damp=F
 DIIS: error= 1.27D-07 at cycle   9 NSaved=   9.
 NSaved= 9 IEnMin= 9 EnMin= -76.0335537716155     IErMin= 9 ErrMin= 1.27D-07
 ErrMax= 1.27D-07  0.00D+00 EMaxC= 1.00D-01 BMatC= 5.21D-13 BMatP= 2.43D-11
 IDIUse=1 WtCom= 1.00D+00 WtEn= 0.00D+00
 Coeff-Com:  0.620D-05-0.310D-04-0.296D-03 0.149D-02-0.508D-04-0.210D-01
 Coeff-Com:  0.115D+00-0.436D+00 0.134D+01
 Coeff:      0.620D-05-0.310D-04-0.296D-03 0.149D-02-0.508D-04-0.210D-01
 Coeff:      0.115D+00-0.436D+00 0.134D+01
 Gap=     0.539 Goal=   None    Shift=    0.000
 RMSDP=3.68D-08 MaxDP=3.97D-07 DE=-6.34D-11 OVMax= 7.15D-07

 Cycle  10  Pass 1  IDiag  1:
 E= -76.0335537716171     Delta-E=       -0.000000000002 Rises=F Damp=F
 DIIS: error= 3.06D-08 at cycle  10 NSaved=  10.
 NSaved=10 IEnMin=10 EnMin= -76.0335537716171     IErMin=10 ErrMin= 3.06D-08
 ErrMax= 3.06D-08  0.00D+00 EMaxC= 1.00D-01 BMatC= 2.68D-14 BMatP= 5.21D-13
 IDIUse=1 WtCom= 1.00D+00 WtEn= 0.00D+00
 Coeff-Com: -0.467D-06 0.256D-05 0.337D-04-0.236D-03 0.273D-03 0.226D-02
 Coeff-Com: -0.181D-01 0.868D-01-0.444D+00 0.137D+01
 Coeff:     -0.467D-06 0.256D-05 0.337D-04-0.236D-03 0.273D-03 0.226D-02
 Coeff:     -0.181D-01 0.868D-01-0.444D+00 0.137D+01
 Gap=     0.539 Goal=   None    Shift=    0.000
 RMSDP=8.22D-09 MaxDP=7.22D-08 DE=-1.53D-12 OVMax= 2.16D-07

 SCF Done:  E(RHF) =  -76.0335537716     A.U. after   10 cycles
            NFock= 10  Conv=0.82D-08     -V/T= 2.0039
 KE= 7.573687083147D+01 PE=-1.978673848166D+02 EE= 3.737826719904D+01
 Leave Link  502 at Mon Feb 20 10:17:29 2023, MaxMem=   754974720 cpu:               0.8 elap:               0.3
 (Enter /opt/cluster/programs/g16-c.01/g16/l601.exe)
 Copying SCF densities to generalized density rwf, IOpCl= 0 IROHF=0.

 **********************************************************************

            Population analysis using the SCF Density.

 **********************************************************************

 Orbital symmetries:
       Occupied  (A1) (A1) (B2) (A1) (B1)
       Virtual   (A1) (B2) (A1) (B1) (A1) (B2) (B2) (A1) (A2) (A1)
                 (B1) (B2) (A1) (B2) (B2) (A1) (B1) (A1) (A2) (A1)
                 (B2) (B1) (A1) (B2) (A2) (B1) (A1) (B2) (A1) (B2)
                 (A1) (B1) (A1) (A2) (A1) (B2)
 The electronic state is 1-A1.
 Alpha  occ. eigenvalues --  -20.58467  -1.33025  -0.69525  -0.57197  -0.50484
 Alpha virt. eigenvalues --    0.03460   0.05745   0.17526   0.19898   0.21757
 Alpha virt. eigenvalues --    0.23227   0.27732   0.32212   0.38076   0.40039
 Alpha virt. eigenvalues --    0.42908   0.52945   0.63435   0.65236   0.79671
 Alpha virt. eigenvalues --    0.90859   1.10409   1.11487   1.14438   1.29883
 Alpha virt. eigenvalues --    1.45374   1.46937   1.56872   1.96001   1.98903
 Alpha virt. eigenvalues --    2.07008   2.35718   2.37913   2.51238   2.70271
 Alpha virt. eigenvalues --    2.94010   3.66893   3.68019   3.69299   3.97487
 Alpha virt. eigenvalues --    4.19624
          Condensed to atoms (all electrons):
               1          2          3
     1  O    7.778127   0.317471   0.317471
     2  H    0.317471   0.498395  -0.022399
     3  H    0.317471  -0.022399   0.498395
 Mulliken charges:
               1
     1  O   -0.413068
     2  H    0.206534
     3  H    0.206534
 Sum of Mulliken charges =   0.00000
 Mulliken charges with hydrogens summed into heavy atoms:
               1
     1  O    0.000000
 Electronic spatial extent (au):  <R**2>=             20.2261
 Charge=              0.0000 electrons
 Dipole moment (field-independent basis, Debye):
    X=             -0.0000    Y=             -0.0000    Z=             -2.0053  Tot=              2.0053
 Quadrupole moment (field-independent basis, Debye-Ang):
   XX=             -7.7143   YY=             -4.0591   ZZ=             -6.3523
   XY=              0.0000   XZ=              0.0000   YZ=              0.0000
 Traceless Quadrupole moment (field-independent basis, Debye-Ang):
   XX=             -1.6724   YY=              1.9828   ZZ=             -0.3104
   XY=              0.0000   XZ=              0.0000   YZ=              0.0000
 Octapole moment (field-independent basis, Debye-Ang**2):
  XXX=              0.0000  YYY=             -0.0000  ZZZ=             -1.1114  XYY=             -0.0000
  XXY=              0.0000  XXZ=             -0.2539  XZZ=              0.0000  YZZ=             -0.0000
  YYZ=             -1.5632  XYZ=             -0.0000
 Hexadecapole moment (field-independent basis, Debye-Ang**3):
 XXXX=             -7.0012 YYYY=             -6.2840 ZZZZ=             -7.7200 XXXY=             -0.0000
 XXXZ=             -0.0000 YYYX=             -0.0000 YYYZ=              0.0000 ZZZX=             -0.0000
 ZZZY=             -0.0000 XXYY=             -2.6219 XXZZ=             -2.5110 YYZZ=             -1.9685
 XXYZ=             -0.0000 YYXZ=              0.0000 ZZXY=             -0.0000
 N-N= 8.718693014477D+00 E-N=-1.978673852056D+02  KE= 7.573687083147D+01
 Symmetry A1   KE= 6.785553272948D+01
 Symmetry A2   KE= 2.020073802952D-33
 Symmetry B1   KE= 4.449676528981D+00
 Symmetry B2   KE= 3.431661573009D+00
 No NMR shielding tensors so no spin-rotation constants.
 Leave Link  601 at Mon Feb 20 10:17:29 2023, MaxMem=   754974720 cpu:               0.4 elap:               0.1
 (Enter /opt/cluster/programs/g16-c.01/g16/l9999.exe)
 Unable to Open any file for archive entry.
 1\1\GINC-NODE101\SP\RHF\Aug-CC-pVDZ\H2O1\BOITTIER\20-Feb-2023\0\\#P HF
 /aug-cc-pVDZ scf(maxcycle=200)\\Gaussian input\\0,1\O,0,0.,0.11751,0.\
 H,0,0.7973622306,-0.5007896629,0.\H,0,-0.8187867861,-0.4721248014,0.\\
 Version=ES64L-G16RevC.01\State=1-A1\HF=-76.0335538\RMSD=8.224e-09\Dipo
 le=-0.0139906,-0.7888041,0.\Quadrupole=1.4736146,-0.2302141,-1.2434006
 ,-0.0302295,0.,0.\PG=C02V [C2(O1),SGV(H2)]\\@
 The archive entry for this job was punched.


 Everywhere is walking distance if you have the time.
                                    -- Steven Wright
 Job cpu time:       0 days  0 hours  0 minutes  3.6 seconds.
 Elapsed time:       0 days  0 hours  0 minutes  1.4 seconds.
 File lengths (MBytes):  RWF=      6 Int=      0 D2E=      0 Chk=      1 Scr=      1
 Normal termination of Gaussian 16 at Mon Feb 20 10:17:29 2023.
