 Entering Gaussian System, Link 0=/opt/cluster/programs/g16-c.01/g16/g16
 Input=/scratch/boittier/jobs/tmp.7312106/gaussian_97_water_hf_adz.com
 Output=/scratch/boittier/jobs/tmp.7312106/gaussian_97_water_hf_adz.out
 Initial command:
 /opt/cluster/programs/g16-c.01/g16/l1.exe "/scratch/boittier/jobs/tmp.7312106/Gau-94721.inp" -scrdir="/scratch/boittier/jobs/tmp.7312106/"
 Entering Link 1 = /opt/cluster/programs/g16-c.01/g16/l1.exe PID=     94722.
  
 Copyright (c) 1988-2019, Gaussian, Inc.  All Rights Reserved.
  
 This is part of the Gaussian(R) 16 program.  It is based on
 the Gaussian(R) 09 system (copyright 2009, Gaussian, Inc.),
 the Gaussian(R) 03 system (copyright 2003, Gaussian, Inc.),
 the Gaussian(R) 98 system (copyright 1998, Gaussian, Inc.),
 the Gaussian(R) 94 system (copyright 1995, Gaussian, Inc.),
 the Gaussian 92(TM) system (copyright 1992, Gaussian, Inc.),
 the Gaussian 90(TM) system (copyright 1990, Gaussian, Inc.),
 the Gaussian 88(TM) system (copyright 1988, Gaussian, Inc.),
 the Gaussian 86(TM) system (copyright 1986, Carnegie Mellon
 University), and the Gaussian 82(TM) system (copyright 1983,
 Carnegie Mellon University). Gaussian is a federally registered
 trademark of Gaussian, Inc.
  
 This software contains proprietary and confidential information,
 including trade secrets, belonging to Gaussian, Inc.
  
 This software is provided under written license and may be
 used, copied, transmitted, or stored only in accord with that
 written license.
  
 The following legend is applicable only to US Government
 contracts under FAR:
  
                    RESTRICTED RIGHTS LEGEND
  
 Use, reproduction and disclosure by the US Government is
 subject to restrictions as set forth in subparagraphs (a)
 and (c) of the Commercial Computer Software - Restricted
 Rights clause in FAR 52.227-19.
  
 Gaussian, Inc.
 340 Quinnipiac St., Bldg. 40, Wallingford CT 06492
  
  
 ---------------------------------------------------------------
 Warning -- This program may not be used in any manner that
 competes with the business of Gaussian, Inc. or will provide
 assistance to any competitor of Gaussian, Inc.  The licensee
 of this program is prohibited from giving any competitor of
 Gaussian, Inc. access to this program.  By using this program,
 the user acknowledges that Gaussian, Inc. is engaged in the
 business of creating and licensing software in the field of
 computational chemistry and represents and warrants to the
 licensee that it is not a competitor of Gaussian, Inc. and that
 it will not use this program in any manner prohibited above.
 ---------------------------------------------------------------
  

 Cite this work as:
 Gaussian 16, Revision C.01,
 M. J. Frisch, G. W. Trucks, H. B. Schlegel, G. E. Scuseria, 
 M. A. Robb, J. R. Cheeseman, G. Scalmani, V. Barone, 
 G. A. Petersson, H. Nakatsuji, X. Li, M. Caricato, A. V. Marenich, 
 J. Bloino, B. G. Janesko, R. Gomperts, B. Mennucci, H. P. Hratchian, 
 J. V. Ortiz, A. F. Izmaylov, J. L. Sonnenberg, D. Williams-Young, 
 F. Ding, F. Lipparini, F. Egidi, J. Goings, B. Peng, A. Petrone, 
 T. Henderson, D. Ranasinghe, V. G. Zakrzewski, J. Gao, N. Rega, 
 G. Zheng, W. Liang, M. Hada, M. Ehara, K. Toyota, R. Fukuda, 
 J. Hasegawa, M. Ishida, T. Nakajima, Y. Honda, O. Kitao, H. Nakai, 
 T. Vreven, K. Throssell, J. A. Montgomery, Jr., J. E. Peralta, 
 F. Ogliaro, M. J. Bearpark, J. J. Heyd, E. N. Brothers, K. N. Kudin, 
 V. N. Staroverov, T. A. Keith, R. Kobayashi, J. Normand, 
 K. Raghavachari, A. P. Rendell, J. C. Burant, S. S. Iyengar, 
 J. Tomasi, M. Cossi, J. M. Millam, M. Klene, C. Adamo, R. Cammi, 
 J. W. Ochterski, R. L. Martin, K. Morokuma, O. Farkas, 
 J. B. Foresman, and D. J. Fox, Gaussian, Inc., Wallingford CT, 2019.
 
 ******************************************
 Gaussian 16:  ES64L-G16RevC.01  3-Jul-2019
                20-Feb-2023 
 ******************************************
 %nproc=4
 Will use up to    4 processors via shared memory.
 %mem=5760MB
 %chk=gaussian_97_water_hf_adz.chk
 -----------------------------------
 #P HF/aug-cc-pVDZ scf(maxcycle=200)
 -----------------------------------
 1/38=1,172=1/1;
 2/12=2,17=6,18=5,40=1/2;
 3/5=16,7=10,11=9,25=1,30=1/1,2,3;
 4//1;
 5/5=2,7=200,38=5/2;
 6/7=2,8=2,9=2,10=2,28=1/1;
 99/5=1,9=1/99;
 Leave Link    1 at Mon Feb 20 10:28:15 2023, MaxMem=   754974720 cpu:               0.1 elap:               0.0
 (Enter /opt/cluster/programs/g16-c.01/g16/l101.exe)
 --------------
 Gaussian input
 --------------
 Symbolic Z-matrix:
 Charge =  0 Multiplicity = 1
 O                     0.        0.11751   0. 
 H                     0.75785  -0.47015   0. 
 H                    -0.87772  -0.26886   0. 
 
 ITRead=  0  0  0
 MicOpt= -1 -1 -1
 NAtoms=      3 NQM=        3 NQMF=       0 NMMI=      0 NMMIF=      0
                NMic=       0 NMicF=      0.
                    Isotopes and Nuclear Properties:
 (Nuclear quadrupole moments (NQMom) in fm**2, nuclear magnetic moments (NMagM)
  in nuclear magnetons)

  Atom         1           2           3
 IAtWgt=          16           1           1
 AtmWgt=  15.9949146   1.0078250   1.0078250
 NucSpn=           0           1           1
 AtZEff=  -0.0000000  -0.0000000  -0.0000000
 NQMom=    0.0000000   0.0000000   0.0000000
 NMagM=    0.0000000   2.7928460   2.7928460
 AtZNuc=   8.0000000   1.0000000   1.0000000
 Leave Link  101 at Mon Feb 20 10:28:15 2023, MaxMem=   754974720 cpu:               0.8 elap:               0.2
 (Enter /opt/cluster/programs/g16-c.01/g16/l202.exe)
                          Input orientation:                          
 ---------------------------------------------------------------------
 Center     Atomic      Atomic             Coordinates (Angstroms)
 Number     Number       Type             X           Y           Z
 ---------------------------------------------------------------------
      1          8           0        0.000000    0.117510    0.000000
      2          1           0        0.757850   -0.470150    0.000000
      3          1           0       -0.877724   -0.268860    0.000000
 ---------------------------------------------------------------------
                    Distance matrix (angstroms):
                    1          2          3
     1  O    0.000000
     2  H    0.959000   0.000000
     3  H    0.959000   1.647913   0.000000
 Stoichiometry    H2O
 Framework group  C2V[C2(O),SGV(H2)]
 Deg. of freedom     2
 Full point group                 C2V     NOp   4
 Largest Abelian subgroup         C2V     NOp   4
 Largest concise Abelian subgroup C2      NOp   2
                         Standard orientation:                         
 ---------------------------------------------------------------------
 Center     Atomic      Atomic             Coordinates (Angstroms)
 Number     Number       Type             X           Y           Z
 ---------------------------------------------------------------------
      1          8           0        0.000000   -0.000000    0.098138
      2          1           0        0.000000    0.823957   -0.392552
      3          1           0       -0.000000   -0.823957   -0.392552
 ---------------------------------------------------------------------
 Rotational constants (GHZ):        1172.5562753         369.3118621         280.8534212
 Leave Link  202 at Mon Feb 20 10:28:15 2023, MaxMem=   754974720 cpu:               0.0 elap:               0.0
 (Enter /opt/cluster/programs/g16-c.01/g16/l301.exe)
 Standard basis: Aug-CC-pVDZ (5D, 7F)
 Ernie: Thresh=  0.10000D-02 Tol=  0.10000D-05 Strict=F.
 Ernie:  2 primitive shells out of 39 were deleted.
 There are    20 symmetry adapted cartesian basis functions of A1  symmetry.
 There are     4 symmetry adapted cartesian basis functions of A2  symmetry.
 There are     7 symmetry adapted cartesian basis functions of B1  symmetry.
 There are    12 symmetry adapted cartesian basis functions of B2  symmetry.
 There are    18 symmetry adapted basis functions of A1  symmetry.
 There are     4 symmetry adapted basis functions of A2  symmetry.
 There are     7 symmetry adapted basis functions of B1  symmetry.
 There are    12 symmetry adapted basis functions of B2  symmetry.
    41 basis functions,    65 primitive gaussians,    43 cartesian basis functions
     5 alpha electrons        5 beta electrons
       nuclear repulsion energy         9.1499364080 Hartrees.
 IExCor=    0 DFT=F Ex=HF Corr=None ExCW=0 ScaHFX=  1.000000
 ScaDFX=  1.000000  1.000000  1.000000  1.000000 ScalE2=  1.000000  1.000000
 IRadAn=      5 IRanWt=     -1 IRanGd=            0 ICorTp=0 IEmpDi=  4
 NAtoms=    3 NActive=    3 NUniq=    2 SFac= 2.25D+00 NAtFMM=   60 NAOKFM=F Big=F
 Integral buffers will be    131072 words long.
 Raffenetti 1 integral format.
 Two-electron integral symmetry is turned on.
 Leave Link  301 at Mon Feb 20 10:28:15 2023, MaxMem=   754974720 cpu:               0.2 elap:               0.0
 (Enter /opt/cluster/programs/g16-c.01/g16/l302.exe)
 NPDir=0 NMtPBC=     1 NCelOv=     1 NCel=       1 NClECP=     1 NCelD=      1
         NCelK=      1 NCelE2=     1 NClLst=     1 CellRange=     0.0.
 One-electron integrals computed using PRISM.
 One-electron integral symmetry used in STVInt
 NBasis=    41 RedAO= T EigKep=  3.01D-03  NBF=    18     4     7    12
 NBsUse=    41 1.00D-06 EigRej= -1.00D+00 NBFU=    18     4     7    12
 Leave Link  302 at Mon Feb 20 10:28:15 2023, MaxMem=   754974720 cpu:               0.4 elap:               0.1
 (Enter /opt/cluster/programs/g16-c.01/g16/l303.exe)
 DipDrv:  MaxL=1.
 Leave Link  303 at Mon Feb 20 10:28:15 2023, MaxMem=   754974720 cpu:               0.1 elap:               0.0
 (Enter /opt/cluster/programs/g16-c.01/g16/l401.exe)
 ExpMin= 2.97D-02 ExpMax= 1.17D+04 ExpMxC= 4.01D+02 IAcc=3 IRadAn=         5 AccDes= 0.00D+00
 Harris functional with IExCor=  205 and IRadAn=       5 diagonalized for initial guess.
 HarFok:  IExCor=  205 AccDes= 0.00D+00 IRadAn=         5 IDoV= 1 UseB2=F ITyADJ=14
 ICtDFT=  3500011 ScaDFX=  1.000000  1.000000  1.000000  1.000000
 FoFCou: FMM=F IPFlag=           0 FMFlag=      100000 FMFlg1=           0
         NFxFlg=           0 DoJE=T BraDBF=F KetDBF=T FulRan=T
         wScrn=  0.000000 ICntrl=       500 IOpCl=  0 I1Cent=   200000004 NGrid=           0
         NMat0=    1 NMatS0=      1 NMatT0=    0 NMatD0=    1 NMtDS0=    0 NMtDT0=    0
 Petite list used in FoFCou.
 Harris En= -76.1234777036142    
 JPrj=0 DoOrth=F DoCkMO=F.
 Initial guess orbital symmetries:
       Occupied  (A1) (A1) (B2) (A1) (B1)
       Virtual   (A1) (B2) (A1) (B1) (A1) (B2) (B2) (A1) (A2) (A1)
                 (B1) (B2) (A1) (B2) (B2) (A1) (B1) (A1) (A2) (A1)
                 (B1) (B2) (A1) (B2) (B1) (A2) (B2) (A1) (A1) (B2)
                 (A1) (B1) (A1) (A2) (A1) (B2)
 The electronic state of the initial guess is 1-A1.
 Leave Link  401 at Mon Feb 20 10:28:15 2023, MaxMem=   754974720 cpu:               0.5 elap:               0.1
 (Enter /opt/cluster/programs/g16-c.01/g16/l502.exe)
 Keep R1 ints in memory in symmetry-blocked form, NReq=1211502.
 FoFCou: FMM=F IPFlag=           0 FMFlag=           0 FMFlg1=           0
         NFxFlg=           0 DoJE=F BraDBF=F KetDBF=F FulRan=T
         wScrn=  0.000000 ICntrl=       600 IOpCl=  0 I1Cent=           0 NGrid=           0
         NMat0=    1 NMatS0=    861 NMatT0=    0 NMatD0=    1 NMtDS0=    0 NMtDT0=    0
 Petite list used in FoFCou.
 Closed shell SCF:
 Using DIIS extrapolation, IDIIS=  1040.
 NGot=   754974720 LenX=   754868251 LenY=   754865961
 Requested convergence on RMS density matrix=1.00D-08 within 200 cycles.
 Requested convergence on MAX density matrix=1.00D-06.
 Requested convergence on             energy=1.00D-06.
 No special actions if energy rises.

 Cycle   1  Pass 1  IDiag  1:
 E= -75.9596807320368    
 DIIS: error= 5.16D-02 at cycle   1 NSaved=   1.
 NSaved= 1 IEnMin= 1 EnMin= -75.9596807320368     IErMin= 1 ErrMin= 5.16D-02
 ErrMax= 5.16D-02  0.00D+00 EMaxC= 1.00D-01 BMatC= 1.19D-01 BMatP= 1.19D-01
 IDIUse=3 WtCom= 4.84D-01 WtEn= 5.16D-01
 Coeff-Com:  0.100D+01
 Coeff-En:   0.100D+01
 Coeff:      0.100D+01
 Gap=     0.456 Goal=   None    Shift=    0.000
 GapD=    0.456 DampG=2.000 DampE=0.500 DampFc=1.0000 IDamp=-1.
 RMSDP=6.29D-03 MaxDP=1.19D-01              OVMax= 1.19D-01

 Cycle   2  Pass 1  IDiag  1:
 E= -76.0050762443648     Delta-E=       -0.045395512328 Rises=F Damp=F
 DIIS: error= 3.97D-02 at cycle   2 NSaved=   2.
 NSaved= 2 IEnMin= 2 EnMin= -76.0050762443648     IErMin= 2 ErrMin= 3.97D-02
 ErrMax= 3.97D-02  0.00D+00 EMaxC= 1.00D-01 BMatC= 4.56D-02 BMatP= 1.19D-01
 IDIUse=3 WtCom= 6.03D-01 WtEn= 3.97D-01
 Coeff-Com:  0.372D+00 0.628D+00
 Coeff-En:   0.207D+00 0.793D+00
 Coeff:      0.306D+00 0.694D+00
 Gap=     0.559 Goal=   None    Shift=    0.000
 RMSDP=2.91D-03 MaxDP=5.46D-02 DE=-4.54D-02 OVMax= 5.90D-02

 Cycle   3  Pass 1  IDiag  1:
 E= -76.0363391994967     Delta-E=       -0.031262955132 Rises=F Damp=F
 DIIS: error= 4.83D-03 at cycle   3 NSaved=   3.
 NSaved= 3 IEnMin= 3 EnMin= -76.0363391994967     IErMin= 3 ErrMin= 4.83D-03
 ErrMax= 4.83D-03  0.00D+00 EMaxC= 1.00D-01 BMatC= 1.17D-03 BMatP= 4.56D-02
 IDIUse=3 WtCom= 9.52D-01 WtEn= 4.83D-02
 Coeff-Com: -0.367D-01 0.944D-01 0.942D+00
 Coeff-En:   0.000D+00 0.000D+00 0.100D+01
 Coeff:     -0.349D-01 0.898D-01 0.945D+00
 Gap=     0.540 Goal=   None    Shift=    0.000
 RMSDP=4.72D-04 MaxDP=8.13D-03 DE=-3.13D-02 OVMax= 8.91D-03

 Cycle   4  Pass 1  IDiag  1:
 E= -76.0372135671916     Delta-E=       -0.000874367695 Rises=F Damp=F
 DIIS: error= 5.70D-04 at cycle   4 NSaved=   4.
 NSaved= 4 IEnMin= 4 EnMin= -76.0372135671916     IErMin= 4 ErrMin= 5.70D-04
 ErrMax= 5.70D-04  0.00D+00 EMaxC= 1.00D-01 BMatC= 7.01D-06 BMatP= 1.17D-03
 IDIUse=3 WtCom= 9.94D-01 WtEn= 5.70D-03
 Coeff-Com:  0.843D-02-0.428D-01-0.321D+00 0.136D+01
 Coeff-En:   0.000D+00 0.000D+00 0.000D+00 0.100D+01
 Coeff:      0.838D-02-0.425D-01-0.319D+00 0.135D+01
 Gap=     0.541 Goal=   None    Shift=    0.000
 RMSDP=1.14D-04 MaxDP=1.01D-03 DE=-8.74D-04 OVMax= 2.35D-03

 Cycle   5  Pass 1  IDiag  1:
 E= -76.0372309983338     Delta-E=       -0.000017431142 Rises=F Damp=F
 DIIS: error= 1.58D-04 at cycle   5 NSaved=   5.
 NSaved= 5 IEnMin= 5 EnMin= -76.0372309983338     IErMin= 5 ErrMin= 1.58D-04
 ErrMax= 1.58D-04  0.00D+00 EMaxC= 1.00D-01 BMatC= 3.14D-07 BMatP= 7.01D-06
 IDIUse=3 WtCom= 9.98D-01 WtEn= 1.58D-03
 Coeff-Com: -0.746D-05 0.327D-02 0.214D-01-0.281D+00 0.126D+01
 Coeff-En:   0.000D+00 0.000D+00 0.000D+00 0.000D+00 0.100D+01
 Coeff:     -0.745D-05 0.326D-02 0.213D-01-0.280D+00 0.126D+01
 Gap=     0.541 Goal=   None    Shift=    0.000
 RMSDP=2.85D-05 MaxDP=3.52D-04 DE=-1.74D-05 OVMax= 6.56D-04

 Cycle   6  Pass 1  IDiag  1:
 E= -76.0372320016428     Delta-E=       -0.000001003309 Rises=F Damp=F
 DIIS: error= 3.14D-05 at cycle   6 NSaved=   6.
 NSaved= 6 IEnMin= 6 EnMin= -76.0372320016428     IErMin= 6 ErrMin= 3.14D-05
 ErrMax= 3.14D-05  0.00D+00 EMaxC= 1.00D-01 BMatC= 1.27D-08 BMatP= 3.14D-07
 IDIUse=1 WtCom= 1.00D+00 WtEn= 0.00D+00
 Coeff-Com: -0.367D-03 0.140D-02 0.111D-01-0.188D-01-0.229D+00 0.124D+01
 Coeff:     -0.367D-03 0.140D-02 0.111D-01-0.188D-01-0.229D+00 0.124D+01
 Gap=     0.541 Goal=   None    Shift=    0.000
 RMSDP=5.12D-06 MaxDP=8.76D-05 DE=-1.00D-06 OVMax= 1.46D-04

 Cycle   7  Pass 1  IDiag  1:
 E= -76.0372320438437     Delta-E=       -0.000000042201 Rises=F Damp=F
 DIIS: error= 7.26D-06 at cycle   7 NSaved=   7.
 NSaved= 7 IEnMin= 7 EnMin= -76.0372320438437     IErMin= 7 ErrMin= 7.26D-06
 ErrMax= 7.26D-06  0.00D+00 EMaxC= 1.00D-01 BMatC= 6.67D-10 BMatP= 1.27D-08
 IDIUse=1 WtCom= 1.00D+00 WtEn= 0.00D+00
 Coeff-Com:  0.148D-03-0.727D-03-0.577D-02 0.233D-01 0.280D-01-0.472D+00
 Coeff-Com:  0.143D+01
 Coeff:      0.148D-03-0.727D-03-0.577D-02 0.233D-01 0.280D-01-0.472D+00
 Coeff:      0.143D+01
 Gap=     0.541 Goal=   None    Shift=    0.000
 RMSDP=1.04D-06 MaxDP=2.19D-05 DE=-4.22D-08 OVMax= 3.19D-05

 Cycle   8  Pass 1  IDiag  1:
 E= -76.0372320457525     Delta-E=       -0.000000001909 Rises=F Damp=F
 DIIS: error= 9.15D-07 at cycle   8 NSaved=   8.
 NSaved= 8 IEnMin= 8 EnMin= -76.0372320457525     IErMin= 8 ErrMin= 9.15D-07
 ErrMax= 9.15D-07  0.00D+00 EMaxC= 1.00D-01 BMatC= 1.68D-11 BMatP= 6.67D-10
 IDIUse=1 WtCom= 1.00D+00 WtEn= 0.00D+00
 Coeff-Com: -0.284D-04 0.153D-03 0.127D-02-0.639D-02 0.603D-03 0.968D-01
 Coeff-Com: -0.427D+00 0.133D+01
 Coeff:     -0.284D-04 0.153D-03 0.127D-02-0.639D-02 0.603D-03 0.968D-01
 Coeff:     -0.427D+00 0.133D+01
 Gap=     0.541 Goal=   None    Shift=    0.000
 RMSDP=2.00D-07 MaxDP=2.78D-06 DE=-1.91D-09 OVMax= 3.87D-06

 Cycle   9  Pass 1  IDiag  1:
 E= -76.0372320457918     Delta-E=       -0.000000000039 Rises=F Damp=F
 DIIS: error= 9.23D-08 at cycle   9 NSaved=   9.
 NSaved= 9 IEnMin= 9 EnMin= -76.0372320457918     IErMin= 9 ErrMin= 9.23D-08
 ErrMax= 9.23D-08  0.00D+00 EMaxC= 1.00D-01 BMatC= 1.72D-13 BMatP= 1.68D-11
 IDIUse=1 WtCom= 1.00D+00 WtEn= 0.00D+00
 Coeff-Com:  0.240D-05-0.142D-04-0.130D-03 0.826D-03-0.691D-03-0.103D-01
 Coeff-Com:  0.604D-01-0.265D+00 0.121D+01
 Coeff:      0.240D-05-0.142D-04-0.130D-03 0.826D-03-0.691D-03-0.103D-01
 Coeff:      0.604D-01-0.265D+00 0.121D+01
 Gap=     0.541 Goal=   None    Shift=    0.000
 RMSDP=1.90D-08 MaxDP=1.89D-07 DE=-3.93D-11 OVMax= 2.91D-07

 Cycle  10  Pass 1  IDiag  1:
 E= -76.0372320457921     Delta-E=       -0.000000000000 Rises=F Damp=F
 DIIS: error= 2.35D-08 at cycle  10 NSaved=  10.
 NSaved=10 IEnMin=10 EnMin= -76.0372320457921     IErMin=10 ErrMin= 2.35D-08
 ErrMax= 2.35D-08  0.00D+00 EMaxC= 1.00D-01 BMatC= 8.87D-15 BMatP= 1.72D-13
 IDIUse=1 WtCom= 1.00D+00 WtEn= 0.00D+00
 Coeff-Com: -0.154D-06 0.132D-05 0.170D-04-0.163D-03 0.328D-03 0.121D-02
 Coeff-Com: -0.112D-01 0.609D-01-0.439D+00 0.139D+01
 Coeff:     -0.154D-06 0.132D-05 0.170D-04-0.163D-03 0.328D-03 0.121D-02
 Coeff:     -0.112D-01 0.609D-01-0.439D+00 0.139D+01
 Gap=     0.541 Goal=   None    Shift=    0.000
 RMSDP=4.65D-09 MaxDP=4.32D-08 DE=-3.27D-13 OVMax= 7.90D-08

 SCF Done:  E(RHF) =  -76.0372320458     A.U. after   10 cycles
            NFock= 10  Conv=0.46D-08     -V/T= 2.0018
 KE= 7.589994922288D+01 PE=-1.988277335943D+02 EE= 3.774061591763D+01
 Leave Link  502 at Mon Feb 20 10:28:15 2023, MaxMem=   754974720 cpu:               0.5 elap:               0.1
 (Enter /opt/cluster/programs/g16-c.01/g16/l601.exe)
 Copying SCF densities to generalized density rwf, IOpCl= 0 IROHF=0.

 **********************************************************************

            Population analysis using the SCF Density.

 **********************************************************************

 Orbital symmetries:
       Occupied  (A1) (A1) (B2) (A1) (B1)
       Virtual   (A1) (B2) (A1) (B1) (A1) (B2) (B2) (A1) (A2) (A1)
                 (B1) (B2) (A1) (B2) (B2) (A1) (B1) (A1) (A2) (A1)
                 (B2) (B1) (A1) (B2) (B1) (A2) (A1) (B2) (A1) (B2)
                 (A1) (B1) (A1) (A2) (A1) (B2)
 The electronic state is 1-A1.
 Alpha  occ. eigenvalues --  -20.57060  -1.34629  -0.74297  -0.55841  -0.50502
 Alpha virt. eigenvalues --    0.03637   0.05670   0.17570   0.19524   0.21902
 Alpha virt. eigenvalues --    0.22687   0.30027   0.31155   0.37813   0.43257
 Alpha virt. eigenvalues --    0.45554   0.52408   0.65109   0.65412   0.85170
 Alpha virt. eigenvalues --    0.87777   1.08298   1.08929   1.14923   1.40252
 Alpha virt. eigenvalues --    1.47737   1.49801   1.57325   1.98052   2.05729
 Alpha virt. eigenvalues --    2.06684   2.44066   2.46458   2.62913   2.75084
 Alpha virt. eigenvalues --    2.85543   3.65917   3.66779   3.70805   4.16622
 Alpha virt. eigenvalues --    4.24227
          Condensed to atoms (all electrons):
               1          2          3
     1  O    7.655278   0.343793   0.343793
     2  H    0.343793   0.533376  -0.048602
     3  H    0.343793  -0.048602   0.533376
 Mulliken charges:
               1
     1  O   -0.342864
     2  H    0.171432
     3  H    0.171432
 Sum of Mulliken charges =   0.00000
 Mulliken charges with hydrogens summed into heavy atoms:
               1
     1  O    0.000000
 Electronic spatial extent (au):  <R**2>=             19.5931
 Charge=              0.0000 electrons
 Dipole moment (field-independent basis, Debye):
    X=             -0.0000    Y=              0.0000    Z=             -1.7544  Tot=              1.7544
 Quadrupole moment (field-independent basis, Debye-Ang):
   XX=             -7.6246   YY=             -3.6717   ZZ=             -6.6848
   XY=              0.0000   XZ=              0.0000   YZ=              0.0000
 Traceless Quadrupole moment (field-independent basis, Debye-Ang):
   XX=             -1.6309   YY=              2.3220   ZZ=             -0.6911
   XY=              0.0000   XZ=              0.0000   YZ=              0.0000
 Octapole moment (field-independent basis, Debye-Ang**2):
  XXX=              0.0000  YYY=             -0.0000  ZZZ=             -0.9516  XYY=             -0.0000
  XXY=             -0.0000  XXZ=             -0.2607  XZZ=              0.0000  YZZ=              0.0000
  YYZ=             -1.3777  XYZ=             -0.0000
 Hexadecapole moment (field-independent basis, Debye-Ang**3):
 XXXX=             -6.9383 YYYY=             -5.4935 ZZZZ=             -7.3310 XXXY=             -0.0000
 XXXZ=             -0.0000 YYYX=              0.0000 YYYZ=              0.0000 ZZZX=             -0.0000
 ZZZY=              0.0000 XXYY=             -2.5369 XXZZ=             -2.4049 YYZZ=             -2.0595
 XXYZ=              0.0000 YYXZ=              0.0000 ZZXY=             -0.0000
 N-N= 9.149936408038D+00 E-N=-1.988277337664D+02  KE= 7.589994922288D+01
 Symmetry A1   KE= 6.796230777417D+01
 Symmetry A2   KE= 5.120951833486D-33
 Symmetry B1   KE= 4.427291261770D+00
 Symmetry B2   KE= 3.510350186943D+00
 No NMR shielding tensors so no spin-rotation constants.
 Leave Link  601 at Mon Feb 20 10:28:15 2023, MaxMem=   754974720 cpu:               0.4 elap:               0.1
 (Enter /opt/cluster/programs/g16-c.01/g16/l9999.exe)
 Unable to Open any file for archive entry.
 1\1\GINC-NODE86\SP\RHF\Aug-CC-pVDZ\H2O1\BOITTIER\20-Feb-2023\0\\#P HF/
 aug-cc-pVDZ scf(maxcycle=200)\\Gaussian input\\0,1\O,0,0.,0.11751,0.\H
 ,0,0.7578497316,-0.4701504329,0.\H,0,-0.877723846,-0.2688600949,0.\\Ve
 rsion=ES64L-G16RevC.01\State=1-A1\HF=-76.037232\RMSD=4.649e-09\Dipole=
 -0.0843121,-0.6850729,0.\Quadrupole=1.6929155,-0.480406,-1.2125095,-0.
 2715846,0.,0.\PG=C02V [C2(O1),SGV(H2)]\\@
 The archive entry for this job was punched.


 A BIRD IN THE HAND IS SAFER THAN ONE OVERHEAD.

                       -- NEWTON'S SEVENTH LAW
 Job cpu time:       0 days  0 hours  0 minutes  3.3 seconds.
 Elapsed time:       0 days  0 hours  0 minutes  0.8 seconds.
 File lengths (MBytes):  RWF=      6 Int=      0 D2E=      0 Chk=      1 Scr=      1
 Normal termination of Gaussian 16 at Mon Feb 20 10:28:16 2023.
