 Entering Gaussian System, Link 0=/opt/cluster/programs/g16-c.01/g16/g16
 Input=/scratch/boittier/jobs/tmp.7262708/gaussian_176_water_hf_pdz.com
 Output=/scratch/boittier/jobs/tmp.7262708/gaussian_176_water_hf_pdz.out
 Initial command:
 /opt/cluster/programs/g16-c.01/g16/l1.exe "/scratch/boittier/jobs/tmp.7262708/Gau-177937.inp" -scrdir="/scratch/boittier/jobs/tmp.7262708/"
 Entering Link 1 = /opt/cluster/programs/g16-c.01/g16/l1.exe PID=    177938.
  
 Copyright (c) 1988-2019, Gaussian, Inc.  All Rights Reserved.
  
 This is part of the Gaussian(R) 16 program.  It is based on
 the Gaussian(R) 09 system (copyright 2009, Gaussian, Inc.),
 the Gaussian(R) 03 system (copyright 2003, Gaussian, Inc.),
 the Gaussian(R) 98 system (copyright 1998, Gaussian, Inc.),
 the Gaussian(R) 94 system (copyright 1995, Gaussian, Inc.),
 the Gaussian 92(TM) system (copyright 1992, Gaussian, Inc.),
 the Gaussian 90(TM) system (copyright 1990, Gaussian, Inc.),
 the Gaussian 88(TM) system (copyright 1988, Gaussian, Inc.),
 the Gaussian 86(TM) system (copyright 1986, Carnegie Mellon
 University), and the Gaussian 82(TM) system (copyright 1983,
 Carnegie Mellon University). Gaussian is a federally registered
 trademark of Gaussian, Inc.
  
 This software contains proprietary and confidential information,
 including trade secrets, belonging to Gaussian, Inc.
  
 This software is provided under written license and may be
 used, copied, transmitted, or stored only in accord with that
 written license.
  
 The following legend is applicable only to US Government
 contracts under FAR:
  
                    RESTRICTED RIGHTS LEGEND
  
 Use, reproduction and disclosure by the US Government is
 subject to restrictions as set forth in subparagraphs (a)
 and (c) of the Commercial Computer Software - Restricted
 Rights clause in FAR 52.227-19.
  
 Gaussian, Inc.
 340 Quinnipiac St., Bldg. 40, Wallingford CT 06492
  
  
 ---------------------------------------------------------------
 Warning -- This program may not be used in any manner that
 competes with the business of Gaussian, Inc. or will provide
 assistance to any competitor of Gaussian, Inc.  The licensee
 of this program is prohibited from giving any competitor of
 Gaussian, Inc. access to this program.  By using this program,
 the user acknowledges that Gaussian, Inc. is engaged in the
 business of creating and licensing software in the field of
 computational chemistry and represents and warrants to the
 licensee that it is not a competitor of Gaussian, Inc. and that
 it will not use this program in any manner prohibited above.
 ---------------------------------------------------------------
  

 Cite this work as:
 Gaussian 16, Revision C.01,
 M. J. Frisch, G. W. Trucks, H. B. Schlegel, G. E. Scuseria, 
 M. A. Robb, J. R. Cheeseman, G. Scalmani, V. Barone, 
 G. A. Petersson, H. Nakatsuji, X. Li, M. Caricato, A. V. Marenich, 
 J. Bloino, B. G. Janesko, R. Gomperts, B. Mennucci, H. P. Hratchian, 
 J. V. Ortiz, A. F. Izmaylov, J. L. Sonnenberg, D. Williams-Young, 
 F. Ding, F. Lipparini, F. Egidi, J. Goings, B. Peng, A. Petrone, 
 T. Henderson, D. Ranasinghe, V. G. Zakrzewski, J. Gao, N. Rega, 
 G. Zheng, W. Liang, M. Hada, M. Ehara, K. Toyota, R. Fukuda, 
 J. Hasegawa, M. Ishida, T. Nakajima, Y. Honda, O. Kitao, H. Nakai, 
 T. Vreven, K. Throssell, J. A. Montgomery, Jr., J. E. Peralta, 
 F. Ogliaro, M. J. Bearpark, J. J. Heyd, E. N. Brothers, K. N. Kudin, 
 V. N. Staroverov, T. A. Keith, R. Kobayashi, J. Normand, 
 K. Raghavachari, A. P. Rendell, J. C. Burant, S. S. Iyengar, 
 J. Tomasi, M. Cossi, J. M. Millam, M. Klene, C. Adamo, R. Cammi, 
 J. W. Ochterski, R. L. Martin, K. Morokuma, O. Farkas, 
 J. B. Foresman, and D. J. Fox, Gaussian, Inc., Wallingford CT, 2019.
 
 ******************************************
 Gaussian 16:  ES64L-G16RevC.01  3-Jul-2019
                 8-Feb-2023 
 ******************************************
 %nproc=4
 Will use up to    4 processors via shared memory.
 %mem=5760MB
 %chk=gaussian_176_water_hf_pdz.chk
 ------------------------------
 #P HF/6-31g* scf(maxcycle=200)
 ------------------------------
 1/38=1,172=1/1;
 2/12=2,17=6,18=5,40=1/2;
 3/5=1,6=6,7=1,11=9,25=1,30=1/1,2,3;
 4//1;
 5/5=2,7=200,38=5/2;
 6/7=2,8=2,9=2,10=2,28=1/1;
 99/5=1,9=1/99;
 Leave Link    1 at Wed Feb  8 15:07:41 2023, MaxMem=   754974720 cpu:               0.2 elap:               0.1
 (Enter /opt/cluster/programs/g16-c.01/g16/l101.exe)
 --------------
 Gaussian input
 --------------
 Symbolic Z-matrix:
 Charge =  0 Multiplicity = 1
 O                     0.        0.11751   0. 
 H                     0.79736  -0.50079   0. 
 H                    -0.90874  -0.32099   0. 
 
 ITRead=  0  0  0
 MicOpt= -1 -1 -1
 NAtoms=      3 NQM=        3 NQMF=       0 NMMI=      0 NMMIF=      0
                NMic=       0 NMicF=      0.
                    Isotopes and Nuclear Properties:
 (Nuclear quadrupole moments (NQMom) in fm**2, nuclear magnetic moments (NMagM)
  in nuclear magnetons)

  Atom         1           2           3
 IAtWgt=          16           1           1
 AtmWgt=  15.9949146   1.0078250   1.0078250
 NucSpn=           0           1           1
 AtZEff=  -0.0000000  -0.0000000  -0.0000000
 NQMom=    0.0000000   0.0000000   0.0000000
 NMagM=    0.0000000   2.7928460   2.7928460
 AtZNuc=   8.0000000   1.0000000   1.0000000
 Leave Link  101 at Wed Feb  8 15:07:42 2023, MaxMem=   754974720 cpu:               0.7 elap:               0.3
 (Enter /opt/cluster/programs/g16-c.01/g16/l202.exe)
                          Input orientation:                          
 ---------------------------------------------------------------------
 Center     Atomic      Atomic             Coordinates (Angstroms)
 Number     Number       Type             X           Y           Z
 ---------------------------------------------------------------------
      1          8           0        0.000000    0.117510    0.000000
      2          1           0        0.797362   -0.500790    0.000000
      3          1           0       -0.908737   -0.320986    0.000000
 ---------------------------------------------------------------------
                    Distance matrix (angstroms):
                    1          2          3
     1  O    0.000000
     2  H    1.009000   0.000000
     3  H    1.009000   1.715547   0.000000
 Stoichiometry    H2O
 Framework group  C2V[C2(O),SGV(H2)]
 Deg. of freedom     2
 Full point group                 C2V     NOp   4
 Largest Abelian subgroup         C2V     NOp   4
 Largest concise Abelian subgroup C2      NOp   2
                         Standard orientation:                         
 ---------------------------------------------------------------------
 Center     Atomic      Atomic             Coordinates (Angstroms)
 Number     Number       Type             X           Y           Z
 ---------------------------------------------------------------------
      1          8           0       -0.000000   -0.000000    0.106265
      2          1           0       -0.000000    0.857774   -0.425059
      3          1           0       -0.000000   -0.857774   -0.425059
 ---------------------------------------------------------------------
 Rotational constants (GHZ):        1000.0651951         340.7663215         254.1620879
 Leave Link  202 at Wed Feb  8 15:07:42 2023, MaxMem=   754974720 cpu:               0.1 elap:               0.0
 (Enter /opt/cluster/programs/g16-c.01/g16/l301.exe)
 Standard basis: 6-31G(d) (6D, 7F)
 Ernie: Thresh=  0.10000D-02 Tol=  0.10000D-05 Strict=F.
 There are    10 symmetry adapted cartesian basis functions of A1  symmetry.
 There are     1 symmetry adapted cartesian basis functions of A2  symmetry.
 There are     3 symmetry adapted cartesian basis functions of B1  symmetry.
 There are     5 symmetry adapted cartesian basis functions of B2  symmetry.
 There are    10 symmetry adapted basis functions of A1  symmetry.
 There are     1 symmetry adapted basis functions of A2  symmetry.
 There are     3 symmetry adapted basis functions of B1  symmetry.
 There are     5 symmetry adapted basis functions of B2  symmetry.
    19 basis functions,    36 primitive gaussians,    19 cartesian basis functions
     5 alpha electrons        5 beta electrons
       nuclear repulsion energy         8.6997732585 Hartrees.
 IExCor=    0 DFT=F Ex=HF Corr=None ExCW=0 ScaHFX=  1.000000
 ScaDFX=  1.000000  1.000000  1.000000  1.000000 ScalE2=  1.000000  1.000000
 IRadAn=      5 IRanWt=     -1 IRanGd=            0 ICorTp=0 IEmpDi=  4
 NAtoms=    3 NActive=    3 NUniq=    2 SFac= 2.25D+00 NAtFMM=   60 NAOKFM=F Big=F
 Integral buffers will be    131072 words long.
 Raffenetti 1 integral format.
 Two-electron integral symmetry is turned on.
 Leave Link  301 at Wed Feb  8 15:07:42 2023, MaxMem=   754974720 cpu:               0.1 elap:               0.0
 (Enter /opt/cluster/programs/g16-c.01/g16/l302.exe)
 NPDir=0 NMtPBC=     1 NCelOv=     1 NCel=       1 NClECP=     1 NCelD=      1
         NCelK=      1 NCelE2=     1 NClLst=     1 CellRange=     0.0.
 One-electron integrals computed using PRISM.
 One-electron integral symmetry used in STVInt
 NBasis=    19 RedAO= T EigKep=  2.44D-02  NBF=    10     1     3     5
 NBsUse=    19 1.00D-06 EigRej= -1.00D+00 NBFU=    10     1     3     5
 Leave Link  302 at Wed Feb  8 15:07:42 2023, MaxMem=   754974720 cpu:               0.4 elap:               0.1
 (Enter /opt/cluster/programs/g16-c.01/g16/l303.exe)
 DipDrv:  MaxL=1.
 Leave Link  303 at Wed Feb  8 15:07:42 2023, MaxMem=   754974720 cpu:               0.3 elap:               0.2
 (Enter /opt/cluster/programs/g16-c.01/g16/l401.exe)
 ExpMin= 1.61D-01 ExpMax= 5.48D+03 ExpMxC= 8.25D+02 IAcc=3 IRadAn=         5 AccDes= 0.00D+00
 Harris functional with IExCor=  205 and IRadAn=       5 diagonalized for initial guess.
 HarFok:  IExCor=  205 AccDes= 0.00D+00 IRadAn=         5 IDoV= 1 UseB2=F ITyADJ=14
 ICtDFT=  3500011 ScaDFX=  1.000000  1.000000  1.000000  1.000000
 FoFCou: FMM=F IPFlag=           0 FMFlag=      100000 FMFlg1=           0
         NFxFlg=           0 DoJE=T BraDBF=F KetDBF=T FulRan=T
         wScrn=  0.000000 ICntrl=       500 IOpCl=  0 I1Cent=   200000004 NGrid=           0
         NMat0=    1 NMatS0=      1 NMatT0=    0 NMatD0=    1 NMtDS0=    0 NMtDT0=    0
 Petite list used in FoFCou.
 Harris En= -76.0948754579665    
 JPrj=0 DoOrth=F DoCkMO=F.
 Initial guess orbital symmetries:
       Occupied  (A1) (A1) (B2) (A1) (B1)
       Virtual   (A1) (B2) (A1) (B2) (B1) (A1) (B2) (A1) (A2) (A1)
                 (B1) (A1) (B2) (A1)
 The electronic state of the initial guess is 1-A1.
 Leave Link  401 at Wed Feb  8 15:07:43 2023, MaxMem=   754974720 cpu:               1.9 elap:               1.0
 (Enter /opt/cluster/programs/g16-c.01/g16/l502.exe)
 Keep R1 ints in memory in symmetry-blocked form, NReq=845815.
 FoFCou: FMM=F IPFlag=           0 FMFlag=           0 FMFlg1=           0
         NFxFlg=           0 DoJE=F BraDBF=F KetDBF=F FulRan=T
         wScrn=  0.000000 ICntrl=       600 IOpCl=  0 I1Cent=           0 NGrid=           0
         NMat0=    1 NMatS0=    190 NMatT0=    0 NMatD0=    1 NMtDS0=    0 NMtDT0=    0
 Petite list used in FoFCou.
 Closed shell SCF:
 Using DIIS extrapolation, IDIIS=  1040.
 NGot=   754974720 LenX=   754966727 LenY=   754965845
 Requested convergence on RMS density matrix=1.00D-08 within 200 cycles.
 Requested convergence on MAX density matrix=1.00D-06.
 Requested convergence on             energy=1.00D-06.
 No special actions if energy rises.

 Cycle   1  Pass 1  IDiag  1:
 E= -75.9176858436377    
 DIIS: error= 7.62D-02 at cycle   1 NSaved=   1.
 NSaved= 1 IEnMin= 1 EnMin= -75.9176858436377     IErMin= 1 ErrMin= 7.62D-02
 ErrMax= 7.62D-02  0.00D+00 EMaxC= 1.00D-01 BMatC= 1.30D-01 BMatP= 1.30D-01
 IDIUse=3 WtCom= 2.38D-01 WtEn= 7.62D-01
 Coeff-Com:  0.100D+01
 Coeff-En:   0.100D+01
 Coeff:      0.100D+01
 Gap=     0.565 Goal=   None    Shift=    0.000
 GapD=    0.565 DampG=2.000 DampE=0.500 DampFc=1.0000 IDamp=-1.
 RMSDP=1.54D-02 MaxDP=1.21D-01              OVMax= 1.28D-01

 Cycle   2  Pass 1  IDiag  1:
 E= -75.9713639504235     Delta-E=       -0.053678106786 Rises=F Damp=F
 DIIS: error= 5.27D-02 at cycle   2 NSaved=   2.
 NSaved= 2 IEnMin= 2 EnMin= -75.9713639504235     IErMin= 2 ErrMin= 5.27D-02
 ErrMax= 5.27D-02  0.00D+00 EMaxC= 1.00D-01 BMatC= 4.20D-02 BMatP= 1.30D-01
 IDIUse=3 WtCom= 4.73D-01 WtEn= 5.27D-01
 Coeff-Com:  0.344D+00 0.656D+00
 Coeff-En:   0.120D+00 0.880D+00
 Coeff:      0.226D+00 0.774D+00
 Gap=     0.707 Goal=   None    Shift=    0.000
 RMSDP=7.71D-03 MaxDP=5.95D-02 DE=-5.37D-02 OVMax= 5.04D-02

 Cycle   3  Pass 1  IDiag  1:
 E= -75.9974020879092     Delta-E=       -0.026038137486 Rises=F Damp=F
 DIIS: error= 1.25D-02 at cycle   3 NSaved=   3.
 NSaved= 3 IEnMin= 3 EnMin= -75.9974020879092     IErMin= 3 ErrMin= 1.25D-02
 ErrMax= 1.25D-02  0.00D+00 EMaxC= 1.00D-01 BMatC= 2.41D-03 BMatP= 4.20D-02
 IDIUse=3 WtCom= 8.75D-01 WtEn= 1.25D-01
 Coeff-Com: -0.265D-01 0.166D+00 0.860D+00
 Coeff-En:   0.000D+00 0.000D+00 0.100D+01
 Coeff:     -0.232D-01 0.146D+00 0.878D+00
 Gap=     0.681 Goal=   None    Shift=    0.000
 RMSDP=1.57D-03 MaxDP=1.28D-02 DE=-2.60D-02 OVMax= 1.38D-02

 Cycle   4  Pass 1  IDiag  1:
 E= -75.9991881268955     Delta-E=       -0.001786038986 Rises=F Damp=F
 DIIS: error= 1.80D-03 at cycle   4 NSaved=   4.
 NSaved= 4 IEnMin= 4 EnMin= -75.9991881268955     IErMin= 4 ErrMin= 1.80D-03
 ErrMax= 1.80D-03  0.00D+00 EMaxC= 1.00D-01 BMatC= 3.09D-05 BMatP= 2.41D-03
 IDIUse=3 WtCom= 9.82D-01 WtEn= 1.80D-02
 Coeff-Com:  0.615D-02-0.812D-01-0.247D+00 0.132D+01
 Coeff-En:   0.000D+00 0.000D+00 0.000D+00 0.100D+01
 Coeff:      0.604D-02-0.798D-01-0.242D+00 0.132D+01
 Gap=     0.686 Goal=   None    Shift=    0.000
 RMSDP=2.59D-04 MaxDP=2.44D-03 DE=-1.79D-03 OVMax= 2.00D-03

 Cycle   5  Pass 1  IDiag  1:
 E= -75.9992184231552     Delta-E=       -0.000030296260 Rises=F Damp=F
 DIIS: error= 1.88D-04 at cycle   5 NSaved=   5.
 NSaved= 5 IEnMin= 5 EnMin= -75.9992184231552     IErMin= 5 ErrMin= 1.88D-04
 ErrMax= 1.88D-04  0.00D+00 EMaxC= 1.00D-01 BMatC= 2.90D-07 BMatP= 3.09D-05
 IDIUse=3 WtCom= 9.98D-01 WtEn= 1.88D-03
 Coeff-Com:  0.858D-04 0.675D-02 0.995D-02-0.227D+00 0.121D+01
 Coeff-En:   0.000D+00 0.000D+00 0.000D+00 0.000D+00 0.100D+01
 Coeff:      0.856D-04 0.674D-02 0.993D-02-0.226D+00 0.121D+01
 Gap=     0.686 Goal=   None    Shift=    0.000
 RMSDP=6.32D-05 MaxDP=3.69D-04 DE=-3.03D-05 OVMax= 6.11D-04

 Cycle   6  Pass 1  IDiag  1:
 E= -75.9992192328157     Delta-E=       -0.000000809661 Rises=F Damp=F
 DIIS: error= 3.22D-05 at cycle   6 NSaved=   6.
 NSaved= 6 IEnMin= 6 EnMin= -75.9992192328157     IErMin= 6 ErrMin= 3.22D-05
 ErrMax= 3.22D-05  0.00D+00 EMaxC= 1.00D-01 BMatC= 1.49D-08 BMatP= 2.90D-07
 IDIUse=1 WtCom= 1.00D+00 WtEn= 0.00D+00
 Coeff-Com: -0.300D-03 0.201D-02 0.921D-02-0.578D-02-0.330D+00 0.133D+01
 Coeff:     -0.300D-03 0.201D-02 0.921D-02-0.578D-02-0.330D+00 0.133D+01
 Gap=     0.686 Goal=   None    Shift=    0.000
 RMSDP=1.90D-05 MaxDP=9.03D-05 DE=-8.10D-07 OVMax= 1.79D-04

 Cycle   7  Pass 1  IDiag  1:
 E= -75.9992192800967     Delta-E=       -0.000000047281 Rises=F Damp=F
 DIIS: error= 7.23D-06 at cycle   7 NSaved=   7.
 NSaved= 7 IEnMin= 7 EnMin= -75.9992192800967     IErMin= 7 ErrMin= 7.23D-06
 ErrMax= 7.23D-06  0.00D+00 EMaxC= 1.00D-01 BMatC= 6.80D-10 BMatP= 1.49D-08
 IDIUse=1 WtCom= 1.00D+00 WtEn= 0.00D+00
 Coeff-Com:  0.137D-03-0.122D-02-0.482D-02 0.109D-01 0.129D+00-0.676D+00
 Coeff-Com:  0.154D+01
 Coeff:      0.137D-03-0.122D-02-0.482D-02 0.109D-01 0.129D+00-0.676D+00
 Coeff:      0.154D+01
 Gap=     0.686 Goal=   None    Shift=    0.000
 RMSDP=3.24D-06 MaxDP=2.39D-05 DE=-4.73D-08 OVMax= 3.08D-05

 Cycle   8  Pass 1  IDiag  1:
 E= -75.9992192821105     Delta-E=       -0.000000002014 Rises=F Damp=F
 DIIS: error= 1.09D-06 at cycle   8 NSaved=   8.
 NSaved= 8 IEnMin= 8 EnMin= -75.9992192821105     IErMin= 8 ErrMin= 1.09D-06
 ErrMax= 1.09D-06  0.00D+00 EMaxC= 1.00D-01 BMatC= 1.02D-11 BMatP= 6.80D-10
 IDIUse=1 WtCom= 1.00D+00 WtEn= 0.00D+00
 Coeff-Com: -0.157D-04 0.181D-03 0.646D-03-0.259D-02-0.103D-01 0.776D-01
 Coeff-Com: -0.275D+00 0.121D+01
 Coeff:     -0.157D-04 0.181D-03 0.646D-03-0.259D-02-0.103D-01 0.776D-01
 Coeff:     -0.275D+00 0.121D+01
 Gap=     0.686 Goal=   None    Shift=    0.000
 RMSDP=3.28D-07 MaxDP=1.78D-06 DE=-2.01D-09 OVMax= 3.19D-06

 Cycle   9  Pass 1  IDiag  1:
 E= -75.9992192821343     Delta-E=       -0.000000000024 Rises=F Damp=F
 DIIS: error= 1.13D-07 at cycle   9 NSaved=   9.
 NSaved= 9 IEnMin= 9 EnMin= -75.9992192821343     IErMin= 9 ErrMin= 1.13D-07
 ErrMax= 1.13D-07  0.00D+00 EMaxC= 1.00D-01 BMatC= 1.82D-13 BMatP= 1.02D-11
 IDIUse=1 WtCom= 1.00D+00 WtEn= 0.00D+00
 Coeff-Com:  0.121D-05-0.226D-04-0.709D-04 0.465D-03 0.192D-03-0.777D-02
 Coeff-Com:  0.453D-01-0.347D+00 0.131D+01
 Coeff:      0.121D-05-0.226D-04-0.709D-04 0.465D-03 0.192D-03-0.777D-02
 Coeff:      0.453D-01-0.347D+00 0.131D+01
 Gap=     0.686 Goal=   None    Shift=    0.000
 RMSDP=5.66D-08 MaxDP=3.02D-07 DE=-2.38D-11 OVMax= 5.43D-07

 Cycle  10  Pass 1  IDiag  1:
 E= -75.9992192821348     Delta-E=       -0.000000000000 Rises=F Damp=F
 DIIS: error= 1.69D-08 at cycle  10 NSaved=  10.
 NSaved=10 IEnMin=10 EnMin= -75.9992192821348     IErMin=10 ErrMin= 1.69D-08
 ErrMax= 1.69D-08  0.00D+00 EMaxC= 1.00D-01 BMatC= 3.01D-15 BMatP= 1.82D-13
 IDIUse=1 WtCom= 1.00D+00 WtEn= 0.00D+00
 Coeff-Com: -0.369D-07 0.256D-05 0.700D-05-0.758D-04 0.136D-03 0.593D-03
 Coeff-Com: -0.624D-02 0.569D-01-0.268D+00 0.122D+01
 Coeff:     -0.369D-07 0.256D-05 0.700D-05-0.758D-04 0.136D-03 0.593D-03
 Coeff:     -0.624D-02 0.569D-01-0.268D+00 0.122D+01
 Gap=     0.686 Goal=   None    Shift=    0.000
 RMSDP=5.12D-09 MaxDP=3.04D-08 DE=-4.69D-13 OVMax= 4.85D-08

 SCF Done:  E(RHF) =  -75.9992192821     A.U. after   10 cycles
            NFock= 10  Conv=0.51D-08     -V/T= 2.0051
 KE= 7.561235656971D+01 PE=-1.978240323797D+02 EE= 3.751268326934D+01
 Leave Link  502 at Wed Feb  8 15:07:43 2023, MaxMem=   754974720 cpu:               1.7 elap:               0.6
 (Enter /opt/cluster/programs/g16-c.01/g16/l601.exe)
 Copying SCF densities to generalized density rwf, IOpCl= 0 IROHF=0.

 **********************************************************************

            Population analysis using the SCF Density.

 **********************************************************************

 Orbital symmetries:
       Occupied  (A1) (A1) (B2) (A1) (B1)
       Virtual   (A1) (B2) (A1) (B2) (A1) (B1) (B2) (A1) (A2) (A1)
                 (B1) (A1) (B2) (A1)
 The electronic state is 1-A1.
 Alpha  occ. eigenvalues --  -20.56204  -1.30741  -0.69711  -0.53768  -0.48891
 Alpha virt. eigenvalues --    0.19725   0.29225   1.03417   1.05759   1.15703
 Alpha virt. eigenvalues --    1.17209   1.38430   1.38771   2.03862   2.06517
 Alpha virt. eigenvalues --    2.08988   2.59580   2.83409   3.96215
          Condensed to atoms (all electrons):
               1          2          3
     1  O    8.378639   0.253332   0.253332
     2  H    0.253332   0.316241  -0.012224
     3  H    0.253332  -0.012224   0.316241
 Mulliken charges:
               1
     1  O   -0.885302
     2  H    0.442651
     3  H    0.442651
 Sum of Mulliken charges =  -0.00000
 Mulliken charges with hydrogens summed into heavy atoms:
               1
     1  O   -0.000000
 Electronic spatial extent (au):  <R**2>=             19.5737
 Charge=             -0.0000 electrons
 Dipole moment (field-independent basis, Debye):
    X=             -0.0000    Y=              0.0000    Z=             -2.0425  Tot=              2.0425
 Quadrupole moment (field-independent basis, Debye-Ang):
   XX=             -7.3341   YY=             -3.4274   ZZ=             -6.3280
   XY=              0.0000   XZ=              0.0000   YZ=             -0.0000
 Traceless Quadrupole moment (field-independent basis, Debye-Ang):
   XX=             -1.6376   YY=              2.2691   ZZ=             -0.6315
   XY=              0.0000   XZ=              0.0000   YZ=             -0.0000
 Octapole moment (field-independent basis, Debye-Ang**2):
  XXX=              0.0000  YYY=              0.0000  ZZZ=             -1.1572  XYY=             -0.0000
  XXY=             -0.0000  XXZ=             -0.3144  XZZ=             -0.0000  YZZ=              0.0000
  YYZ=             -1.5564  XYZ=             -0.0000
 Hexadecapole moment (field-independent basis, Debye-Ang**3):
 XXXX=             -5.3319 YYYY=             -5.2703 ZZZZ=             -6.1796 XXXY=             -0.0000
 XXXZ=             -0.0000 YYYX=              0.0000 YYYZ=             -0.0000 ZZZX=             -0.0000
 ZZZY=             -0.0000 XXYY=             -2.2200 XXZZ=             -1.9529 YYZZ=             -1.7012
 XXYZ=              0.0000 YYXZ=              0.0000 ZZXY=              0.0000
 N-N= 8.699773258506D+00 E-N=-1.978240325197D+02  KE= 7.561235656971D+01
 Symmetry A1   KE= 6.770979867635D+01
 Symmetry A2   KE= 7.040632528358D-35
 Symmetry B1   KE= 4.548126911255D+00
 Symmetry B2   KE= 3.354430982103D+00
 No NMR shielding tensors so no spin-rotation constants.
 Leave Link  601 at Wed Feb  8 15:07:44 2023, MaxMem=   754974720 cpu:               1.1 elap:               0.5
 (Enter /opt/cluster/programs/g16-c.01/g16/l9999.exe)
 Unable to Open any file for archive entry.
 1\1\GINC-NODE57\SP\RHF\6-31G(d)\H2O1\BOITTIER\08-Feb-2023\0\\#P HF/6-3
 1g* scf(maxcycle=200)\\Gaussian input\\0,1\O,0,0.,0.11751,0.\H,0,0.797
 3622306,-0.5007896629,0.\H,0,-0.9087365837,-0.3209860905,0.\\Version=E
 S64L-G16RevC.01\State=1-A1\HF=-75.9992193\RMSD=5.122e-09\Dipole=-0.084
 223,-0.7991654,0.\Quadrupole=1.6633236,-0.4457957,-1.2175279,-0.224773
 9,0.,0.\PG=C02V [C2(O1),SGV(H2)]\\@
 The archive entry for this job was punched.


 A MAN SHOULD NEVER BE ASHAMED TO OWN HE HAS BEEN IN THE WRONG
 WHICH IS BUT SAYING IN OTHER WORDS,
 THAT HE IS WISER TODAY THAN HE WAS YESTERDAY.

                          -- JONATHAN SWIFT
 Job cpu time:       0 days  0 hours  0 minutes  6.7 seconds.
 Elapsed time:       0 days  0 hours  0 minutes  2.9 seconds.
 File lengths (MBytes):  RWF=      6 Int=      0 D2E=      0 Chk=      1 Scr=      1
 Normal termination of Gaussian 16 at Wed Feb  8 15:07:44 2023.
