 Entering Gaussian System, Link 0=/opt/cluster/programs/g16-c.01/g16/g16
 Input=/scratch/boittier/jobs/tmp.7465547/gaussian_103_water_pbe0_adz.com
 Output=/scratch/boittier/jobs/tmp.7465547/gaussian_103_water_pbe0_adz.out
 Initial command:
 /opt/cluster/programs/g16-c.01/g16/l1.exe "/scratch/boittier/jobs/tmp.7465547/Gau-38645.inp" -scrdir="/scratch/boittier/jobs/tmp.7465547/"
 Entering Link 1 = /opt/cluster/programs/g16-c.01/g16/l1.exe PID=     38649.
  
 Copyright (c) 1988-2019, Gaussian, Inc.  All Rights Reserved.
  
 This is part of the Gaussian(R) 16 program.  It is based on
 the Gaussian(R) 09 system (copyright 2009, Gaussian, Inc.),
 the Gaussian(R) 03 system (copyright 2003, Gaussian, Inc.),
 the Gaussian(R) 98 system (copyright 1998, Gaussian, Inc.),
 the Gaussian(R) 94 system (copyright 1995, Gaussian, Inc.),
 the Gaussian 92(TM) system (copyright 1992, Gaussian, Inc.),
 the Gaussian 90(TM) system (copyright 1990, Gaussian, Inc.),
 the Gaussian 88(TM) system (copyright 1988, Gaussian, Inc.),
 the Gaussian 86(TM) system (copyright 1986, Carnegie Mellon
 University), and the Gaussian 82(TM) system (copyright 1983,
 Carnegie Mellon University). Gaussian is a federally registered
 trademark of Gaussian, Inc.
  
 This software contains proprietary and confidential information,
 including trade secrets, belonging to Gaussian, Inc.
  
 This software is provided under written license and may be
 used, copied, transmitted, or stored only in accord with that
 written license.
  
 The following legend is applicable only to US Government
 contracts under FAR:
  
                    RESTRICTED RIGHTS LEGEND
  
 Use, reproduction and disclosure by the US Government is
 subject to restrictions as set forth in subparagraphs (a)
 and (c) of the Commercial Computer Software - Restricted
 Rights clause in FAR 52.227-19.
  
 Gaussian, Inc.
 340 Quinnipiac St., Bldg. 40, Wallingford CT 06492
  
  
 ---------------------------------------------------------------
 Warning -- This program may not be used in any manner that
 competes with the business of Gaussian, Inc. or will provide
 assistance to any competitor of Gaussian, Inc.  The licensee
 of this program is prohibited from giving any competitor of
 Gaussian, Inc. access to this program.  By using this program,
 the user acknowledges that Gaussian, Inc. is engaged in the
 business of creating and licensing software in the field of
 computational chemistry and represents and warrants to the
 licensee that it is not a competitor of Gaussian, Inc. and that
 it will not use this program in any manner prohibited above.
 ---------------------------------------------------------------
  

 Cite this work as:
 Gaussian 16, Revision C.01,
 M. J. Frisch, G. W. Trucks, H. B. Schlegel, G. E. Scuseria, 
 M. A. Robb, J. R. Cheeseman, G. Scalmani, V. Barone, 
 G. A. Petersson, H. Nakatsuji, X. Li, M. Caricato, A. V. Marenich, 
 J. Bloino, B. G. Janesko, R. Gomperts, B. Mennucci, H. P. Hratchian, 
 J. V. Ortiz, A. F. Izmaylov, J. L. Sonnenberg, D. Williams-Young, 
 F. Ding, F. Lipparini, F. Egidi, J. Goings, B. Peng, A. Petrone, 
 T. Henderson, D. Ranasinghe, V. G. Zakrzewski, J. Gao, N. Rega, 
 G. Zheng, W. Liang, M. Hada, M. Ehara, K. Toyota, R. Fukuda, 
 J. Hasegawa, M. Ishida, T. Nakajima, Y. Honda, O. Kitao, H. Nakai, 
 T. Vreven, K. Throssell, J. A. Montgomery, Jr., J. E. Peralta, 
 F. Ogliaro, M. J. Bearpark, J. J. Heyd, E. N. Brothers, K. N. Kudin, 
 V. N. Staroverov, T. A. Keith, R. Kobayashi, J. Normand, 
 K. Raghavachari, A. P. Rendell, J. C. Burant, S. S. Iyengar, 
 J. Tomasi, M. Cossi, J. M. Millam, M. Klene, C. Adamo, R. Cammi, 
 J. W. Ochterski, R. L. Martin, K. Morokuma, O. Farkas, 
 J. B. Foresman, and D. J. Fox, Gaussian, Inc., Wallingford CT, 2019.
 
 ******************************************
 Gaussian 16:  ES64L-G16RevC.01  3-Jul-2019
                29-Mar-2023 
 ******************************************
 %nproc=4
 Will use up to    4 processors via shared memory.
 %mem=5760MB
 %chk=gaussian_103_water_pbe0_adz.chk
 ----------------------------------------
 #P PBE1PBE/aug-cc-pVDZ scf(maxcycle=200)
 ----------------------------------------
 1/38=1,172=1/1;
 2/12=2,17=6,18=5,40=1/2;
 3/5=16,7=10,11=2,25=1,30=1,74=-13/1,2,3;
 4//1;
 5/5=2,7=200,38=5/2;
 6/7=2,8=2,9=2,10=2,28=1/1;
 99/5=1,9=1/99;
 Leave Link    1 at Wed Mar 29 21:52:16 2023, MaxMem=   754974720 cpu:               0.1 elap:               0.1
 (Enter /opt/cluster/programs/g16-c.01/g16/l101.exe)
 --------------
 Gaussian input
 --------------
 Symbolic Z-matrix:
 Charge =  0 Multiplicity = 1
 O                     0.        0.11751   0. 
 H                     0.75785  -0.47015   0. 
 H                    -0.62454  -0.67497   0. 
 
 ITRead=  0  0  0
 MicOpt= -1 -1 -1
 NAtoms=      3 NQM=        3 NQMF=       0 NMMI=      0 NMMIF=      0
                NMic=       0 NMicF=      0.
                    Isotopes and Nuclear Properties:
 (Nuclear quadrupole moments (NQMom) in fm**2, nuclear magnetic moments (NMagM)
  in nuclear magnetons)

  Atom         1           2           3
 IAtWgt=          16           1           1
 AtmWgt=  15.9949146   1.0078250   1.0078250
 NucSpn=           0           1           1
 AtZEff=  -0.0000000  -0.0000000  -0.0000000
 NQMom=    0.0000000   0.0000000   0.0000000
 NMagM=    0.0000000   2.7928460   2.7928460
 AtZNuc=   8.0000000   1.0000000   1.0000000
 Leave Link  101 at Wed Mar 29 21:52:18 2023, MaxMem=   754974720 cpu:               1.2 elap:               0.4
 (Enter /opt/cluster/programs/g16-c.01/g16/l202.exe)
                          Input orientation:                          
 ---------------------------------------------------------------------
 Center     Atomic      Atomic             Coordinates (Angstroms)
 Number     Number       Type             X           Y           Z
 ---------------------------------------------------------------------
      1          8           0        0.000000    0.117510    0.000000
      2          1           0        0.757850   -0.470150    0.000000
      3          1           0       -0.624543   -0.674972    0.000000
 ---------------------------------------------------------------------
                    Distance matrix (angstroms):
                    1          2          3
     1  O    0.000000
     2  H    0.959000   0.000000
     3  H    1.009000   1.397484   0.000000
 Stoichiometry    H2O
 Framework group  CS[SG(H2O)]
 Deg. of freedom     3
 Full point group                 CS      NOp   2
 Largest Abelian subgroup         CS      NOp   2
 Largest concise Abelian subgroup C1      NOp   1
                         Standard orientation:                         
 ---------------------------------------------------------------------
 Center     Atomic      Atomic             Coordinates (Angstroms)
 Number     Number       Type             X           Y           Z
 ---------------------------------------------------------------------
      1          8           0        0.000000    0.138657    0.000000
      2          1           0        0.697840   -0.519143    0.000000
      3          1           0       -0.697840   -0.590109    0.000000
 ---------------------------------------------------------------------
 Rotational constants (GHZ):         598.2821826         505.4878136         273.9921845
 Leave Link  202 at Wed Mar 29 21:52:21 2023, MaxMem=   754974720 cpu:               0.5 elap:               0.9
 (Enter /opt/cluster/programs/g16-c.01/g16/l301.exe)
 Standard basis: Aug-CC-pVDZ (5D, 7F)
 Ernie: Thresh=  0.10000D-02 Tol=  0.10000D-05 Strict=F.
 Ernie:  2 primitive shells out of 39 were deleted.
 There are    32 symmetry adapted cartesian basis functions of A'  symmetry.
 There are    11 symmetry adapted cartesian basis functions of A"  symmetry.
 There are    30 symmetry adapted basis functions of A'  symmetry.
 There are    11 symmetry adapted basis functions of A"  symmetry.
    41 basis functions,    65 primitive gaussians,    43 cartesian basis functions
     5 alpha electrons        5 beta electrons
       nuclear repulsion energy         8.9887294622 Hartrees.
 IExCor= 1009 DFT=T Ex+Corr=PBE1PBE ExCW=0 ScaHFX=  0.250000
 ScaDFX=  0.750000  0.750000  1.000000  1.000000 ScalE2=  1.000000  1.000000
 IRadAn=      5 IRanWt=     -1 IRanGd=            0 ICorTp=0 IEmpDi=  4
 NAtoms=    3 NActive=    3 NUniq=    3 SFac= 1.00D+00 NAtFMM=   60 NAOKFM=F Big=F
 Integral buffers will be    131072 words long.
 Raffenetti 2 integral format.
 Two-electron integral symmetry is turned on.
 Leave Link  301 at Wed Mar 29 21:52:23 2023, MaxMem=   754974720 cpu:               0.2 elap:               0.1
 (Enter /opt/cluster/programs/g16-c.01/g16/l302.exe)
 NPDir=0 NMtPBC=     1 NCelOv=     1 NCel=       1 NClECP=     1 NCelD=      1
         NCelK=      1 NCelE2=     1 NClLst=     1 CellRange=     0.0.
 One-electron integrals computed using PRISM.
 One-electron integral symmetry used in STVInt
 NBasis=    41 RedAO= T EigKep=  2.22D-03  NBF=    30    11
 NBsUse=    41 1.00D-06 EigRej= -1.00D+00 NBFU=    30    11
 Precomputing XC quadrature grid using
 IXCGrd= 4 IRadAn=           5 IRanWt=          -1 IRanGd=           0 AccXCQ= 0.00D+00.
 Generated NRdTot=       0 NPtTot=           0 NUsed=           0 NTot=          32
 NSgBfM=    43    43    43    43    43 MxSgAt=     3 MxSgA2=     3.
 Leave Link  302 at Wed Mar 29 21:52:25 2023, MaxMem=   754974720 cpu:               0.5 elap:               0.1
 (Enter /opt/cluster/programs/g16-c.01/g16/l303.exe)
 DipDrv:  MaxL=1.
 Leave Link  303 at Wed Mar 29 21:52:28 2023, MaxMem=   754974720 cpu:               0.3 elap:               0.1
 (Enter /opt/cluster/programs/g16-c.01/g16/l401.exe)
 ExpMin= 2.97D-02 ExpMax= 1.17D+04 ExpMxC= 4.01D+02 IAcc=3 IRadAn=         5 AccDes= 0.00D+00
 Harris functional with IExCor= 1009 and IRadAn=       5 diagonalized for initial guess.
 HarFok:  IExCor= 1009 AccDes= 0.00D+00 IRadAn=         5 IDoV= 1 UseB2=F ITyADJ=14
 ICtDFT=  3500011 ScaDFX=  1.000000  1.000000  1.000000  1.000000
 FoFCou: FMM=F IPFlag=           0 FMFlag=      100000 FMFlg1=           0
         NFxFlg=           0 DoJE=T BraDBF=F KetDBF=T FulRan=T
         wScrn=  0.000000 ICntrl=       500 IOpCl=  0 I1Cent=   200000004 NGrid=           0
         NMat0=    1 NMatS0=      1 NMatT0=    0 NMatD0=    1 NMtDS0=    0 NMtDT0=    0
 Petite list used in FoFCou.
 Harris En= -76.3900871144328    
 JPrj=0 DoOrth=F DoCkMO=F.
 Initial guess orbital symmetries:
       Occupied  (A') (A') (A') (A') (A")
       Virtual   (A') (A') (A') (A") (A') (A') (A') (A') (A') (A")
                 (A") (A') (A') (A') (A') (A') (A") (A') (A") (A')
                 (A") (A') (A') (A") (A') (A") (A') (A') (A') (A')
                 (A') (A") (A') (A") (A') (A')
 The electronic state of the initial guess is 1-A'.
 Leave Link  401 at Wed Mar 29 21:52:30 2023, MaxMem=   754974720 cpu:               0.8 elap:               0.2
 (Enter /opt/cluster/programs/g16-c.01/g16/l502.exe)
 Keep R1 ints in memory in symmetry-blocked form, NReq=3831793.
 FoFCou: FMM=F IPFlag=           0 FMFlag=           0 FMFlg1=           0
         NFxFlg=           0 DoJE=F BraDBF=F KetDBF=F FulRan=T
         wScrn=  0.000000 ICntrl=       600 IOpCl=  0 I1Cent=           0 NGrid=           0
         NMat0=    1 NMatS0=    861 NMatT0=    0 NMatD0=    1 NMtDS0=    0 NMtDT0=    0
 Petite list used in FoFCou.
 Closed shell SCF:
 Using DIIS extrapolation, IDIIS=  1040.
 NGot=   754974720 LenX=   754771907 LenY=   754769617
 Requested convergence on RMS density matrix=1.00D-08 within 200 cycles.
 Requested convergence on MAX density matrix=1.00D-06.
 Requested convergence on             energy=1.00D-06.
 No special actions if energy rises.

 Cycle   1  Pass 1  IDiag  1:
 E= -76.2889487428351    
 DIIS: error= 5.09D-02 at cycle   1 NSaved=   1.
 NSaved= 1 IEnMin= 1 EnMin= -76.2889487428351     IErMin= 1 ErrMin= 5.09D-02
 ErrMax= 5.09D-02  0.00D+00 EMaxC= 1.00D-01 BMatC= 8.27D-02 BMatP= 8.27D-02
 IDIUse=3 WtCom= 4.91D-01 WtEn= 5.09D-01
 Coeff-Com:  0.100D+01
 Coeff-En:   0.100D+01
 Coeff:      0.100D+01
 Gap=     0.177 Goal=   None    Shift=    0.000
 GapD=    0.177 DampG=1.000 DampE=0.500 DampFc=0.5000 IDamp=-1.
 Damping current iteration by 5.00D-01
 RMSDP=1.01D-02 MaxDP=1.56D-01              OVMax= 1.97D-01

 Cycle   2  Pass 1  IDiag  1:
 E= -76.3029416416554     Delta-E=       -0.013992898820 Rises=F Damp=T
 DIIS: error= 1.89D-02 at cycle   2 NSaved=   2.
 NSaved= 2 IEnMin= 2 EnMin= -76.3029416416554     IErMin= 2 ErrMin= 1.89D-02
 ErrMax= 1.89D-02  0.00D+00 EMaxC= 1.00D-01 BMatC= 9.50D-03 BMatP= 8.27D-02
 IDIUse=3 WtCom= 8.11D-01 WtEn= 1.89D-01
 Coeff-Com:  0.243D+00 0.757D+00
 Coeff-En:   0.398D+00 0.602D+00
 Coeff:      0.272D+00 0.728D+00
 Gap=     0.306 Goal=   None    Shift=    0.000
 RMSDP=1.28D-03 MaxDP=1.69D-02 DE=-1.40D-02 OVMax= 1.25D-01

 Cycle   3  Pass 1  IDiag  1:
 E= -76.3533947764456     Delta-E=       -0.050453134790 Rises=F Damp=F
 DIIS: error= 2.08D-03 at cycle   3 NSaved=   3.
 NSaved= 3 IEnMin= 3 EnMin= -76.3533947764456     IErMin= 3 ErrMin= 2.08D-03
 ErrMax= 2.08D-03  0.00D+00 EMaxC= 1.00D-01 BMatC= 1.38D-04 BMatP= 9.50D-03
 IDIUse=3 WtCom= 9.79D-01 WtEn= 2.08D-02
 Coeff-Com:  0.244D-01-0.495D-01 0.103D+01
 Coeff-En:   0.000D+00 0.000D+00 0.100D+01
 Coeff:      0.239D-01-0.485D-01 0.102D+01
 Gap=     0.317 Goal=   None    Shift=    0.000
 RMSDP=1.60D-04 MaxDP=2.24D-03 DE=-5.05D-02 OVMax= 2.57D-03

 Cycle   4  Pass 1  IDiag  1:
 E= -76.3534871451026     Delta-E=       -0.000092368657 Rises=F Damp=F
 DIIS: error= 2.92D-04 at cycle   4 NSaved=   4.
 NSaved= 4 IEnMin= 4 EnMin= -76.3534871451026     IErMin= 4 ErrMin= 2.92D-04
 ErrMax= 2.92D-04  0.00D+00 EMaxC= 1.00D-01 BMatC= 3.28D-06 BMatP= 1.38D-04
 IDIUse=3 WtCom= 9.97D-01 WtEn= 2.92D-03
 Coeff-Com:  0.641D-02-0.216D-01 0.247D+00 0.768D+00
 Coeff-En:   0.000D+00 0.000D+00 0.000D+00 0.100D+01
 Coeff:      0.639D-02-0.215D-01 0.247D+00 0.769D+00
 Gap=     0.318 Goal=   None    Shift=    0.000
 RMSDP=1.93D-05 MaxDP=3.03D-04 DE=-9.24D-05 OVMax= 4.40D-04

 Cycle   5  Pass 1  IDiag  1:
 E= -76.3534893229698     Delta-E=       -0.000002177867 Rises=F Damp=F
 DIIS: error= 1.02D-04 at cycle   5 NSaved=   5.
 NSaved= 5 IEnMin= 5 EnMin= -76.3534893229698     IErMin= 5 ErrMin= 1.02D-04
 ErrMax= 1.02D-04  0.00D+00 EMaxC= 1.00D-01 BMatC= 2.62D-07 BMatP= 3.28D-06
 IDIUse=3 WtCom= 9.99D-01 WtEn= 1.02D-03
 Coeff-Com:  0.138D-02-0.216D-02 0.347D-02 0.586D-01 0.939D+00
 Coeff-En:   0.000D+00 0.000D+00 0.000D+00 0.000D+00 0.100D+01
 Coeff:      0.138D-02-0.216D-02 0.347D-02 0.585D-01 0.939D+00
 Gap=     0.318 Goal=   None    Shift=    0.000
 RMSDP=7.55D-06 MaxDP=1.07D-04 DE=-2.18D-06 OVMax= 1.44D-04

 Cycle   6  Pass 1  IDiag  1:
 E= -76.3534895296570     Delta-E=       -0.000000206687 Rises=F Damp=F
 DIIS: error= 4.96D-06 at cycle   6 NSaved=   6.
 NSaved= 6 IEnMin= 6 EnMin= -76.3534895296570     IErMin= 6 ErrMin= 4.96D-06
 ErrMax= 4.96D-06  0.00D+00 EMaxC= 1.00D-01 BMatC= 4.88D-10 BMatP= 2.62D-07
 IDIUse=1 WtCom= 1.00D+00 WtEn= 0.00D+00
 Coeff-Com: -0.141D-04 0.956D-05-0.359D-03-0.612D-02-0.262D-01 0.103D+01
 Coeff:     -0.141D-04 0.956D-05-0.359D-03-0.612D-02-0.262D-01 0.103D+01
 Gap=     0.318 Goal=   None    Shift=    0.000
 RMSDP=4.90D-07 MaxDP=6.96D-06 DE=-2.07D-07 OVMax= 9.58D-06

 Cycle   7  Pass 1  IDiag  1:
 E= -76.3534895300865     Delta-E=       -0.000000000429 Rises=F Damp=F
 DIIS: error= 5.62D-07 at cycle   7 NSaved=   7.
 NSaved= 7 IEnMin= 7 EnMin= -76.3534895300865     IErMin= 7 ErrMin= 5.62D-07
 ErrMax= 5.62D-07  0.00D+00 EMaxC= 1.00D-01 BMatC= 1.23D-11 BMatP= 4.88D-10
 IDIUse=1 WtCom= 1.00D+00 WtEn= 0.00D+00
 Coeff-Com: -0.385D-04 0.554D-04-0.201D-03-0.314D-02-0.307D-01 0.299D+00
 Coeff-Com:  0.735D+00
 Coeff:     -0.385D-04 0.554D-04-0.201D-03-0.314D-02-0.307D-01 0.299D+00
 Coeff:      0.735D+00
 Gap=     0.318 Goal=   None    Shift=    0.000
 RMSDP=7.07D-08 MaxDP=7.00D-07 DE=-4.29D-10 OVMax= 1.39D-06

 Cycle   8  Pass 1  IDiag  1:
 E= -76.3534895300974     Delta-E=       -0.000000000011 Rises=F Damp=F
 DIIS: error= 9.08D-08 at cycle   8 NSaved=   8.
 NSaved= 8 IEnMin= 8 EnMin= -76.3534895300974     IErMin= 8 ErrMin= 9.08D-08
 ErrMax= 9.08D-08  0.00D+00 EMaxC= 1.00D-01 BMatC= 3.26D-13 BMatP= 1.23D-11
 IDIUse=1 WtCom= 1.00D+00 WtEn= 0.00D+00
 Coeff-Com: -0.670D-06 0.189D-05-0.128D-04 0.239D-03 0.121D-02-0.300D-01
 Coeff-Com: -0.267D-01 0.106D+01
 Coeff:     -0.670D-06 0.189D-05-0.128D-04 0.239D-03 0.121D-02-0.300D-01
 Coeff:     -0.267D-01 0.106D+01
 Gap=     0.318 Goal=   None    Shift=    0.000
 RMSDP=1.03D-08 MaxDP=1.98D-07 DE=-1.09D-11 OVMax= 3.32D-07

 Cycle   9  Pass 1  IDiag  1:
 E= -76.3534895300977     Delta-E=       -0.000000000000 Rises=F Damp=F
 DIIS: error= 7.02D-09 at cycle   9 NSaved=   9.
 NSaved= 9 IEnMin= 9 EnMin= -76.3534895300977     IErMin= 9 ErrMin= 7.02D-09
 ErrMax= 7.02D-09  0.00D+00 EMaxC= 1.00D-01 BMatC= 1.55D-15 BMatP= 3.26D-13
 IDIUse=1 WtCom= 1.00D+00 WtEn= 0.00D+00
 Coeff-Com:  0.190D-06-0.309D-06 0.148D-05 0.115D-04 0.191D-03-0.958D-03
 Coeff-Com: -0.314D-02-0.211D-01 0.102D+01
 Coeff:      0.190D-06-0.309D-06 0.148D-05 0.115D-04 0.191D-03-0.958D-03
 Coeff:     -0.314D-02-0.211D-01 0.102D+01
 Gap=     0.318 Goal=   None    Shift=    0.000
 RMSDP=9.22D-10 MaxDP=1.34D-08 DE=-2.70D-13 OVMax= 2.10D-08

 SCF Done:  E(RPBE1PBE) =  -76.3534895301     A.U. after    9 cycles
            NFock=  9  Conv=0.92D-09     -V/T= 2.0062
 KE= 7.588498149398D+01 PE=-1.984361897339D+02 EE= 3.720898924763D+01
 Leave Link  502 at Wed Mar 29 21:52:32 2023, MaxMem=   754974720 cpu:               2.2 elap:               0.6
 (Enter /opt/cluster/programs/g16-c.01/g16/l601.exe)
 Copying SCF densities to generalized density rwf, IOpCl= 0 IROHF=0.

 **********************************************************************

            Population analysis using the SCF Density.

 **********************************************************************

 Orbital symmetries:
       Occupied  (A') (A') (A') (A') (A")
       Virtual   (A') (A') (A') (A") (A') (A') (A') (A') (A') (A")
                 (A") (A') (A') (A') (A') (A') (A") (A') (A") (A')
                 (A") (A') (A') (A") (A') (A") (A') (A') (A') (A')
                 (A') (A") (A') (A") (A') (A')
 The electronic state is 1-A'.
 Alpha  occ. eigenvalues --  -19.23943  -1.04830  -0.51512  -0.43604  -0.33409
 Alpha virt. eigenvalues --   -0.01638   0.03287   0.10793   0.13334   0.14386
 Alpha virt. eigenvalues --    0.15992   0.18453   0.25610   0.27763   0.29725
 Alpha virt. eigenvalues --    0.31207   0.46281   0.50092   0.53839   0.61115
 Alpha virt. eigenvalues --    0.77910   0.93039   0.93768   0.96245   1.04769
 Alpha virt. eigenvalues --    1.19140   1.20696   1.34605   1.73064   1.75797
 Alpha virt. eigenvalues --    1.87875   1.92722   2.14758   2.29438   2.39397
 Alpha virt. eigenvalues --    2.75861   3.30706   3.31286   3.32348   3.58918
 Alpha virt. eigenvalues --    3.86769
          Condensed to atoms (all electrons):
               1          2          3
     1  O    7.661732   0.307735   0.293951
     2  H    0.307735   0.620440  -0.037585
     3  H    0.293951  -0.037585   0.589626
 Mulliken charges:
               1
     1  O   -0.263418
     2  H    0.109410
     3  H    0.154008
 Sum of Mulliken charges =   0.00000
 Mulliken charges with hydrogens summed into heavy atoms:
               1
     1  O    0.000000
 Electronic spatial extent (au):  <R**2>=             20.2326
 Charge=              0.0000 electrons
 Dipole moment (field-independent basis, Debye):
    X=              0.0303    Y=             -2.0728    Z=              0.0000  Tot=              2.0730
 Quadrupole moment (field-independent basis, Debye-Ang):
   XX=             -5.0371   YY=             -6.0123   ZZ=             -7.7801
   XY=              0.0956   XZ=              0.0000   YZ=              0.0000
 Traceless Quadrupole moment (field-independent basis, Debye-Ang):
   XX=              1.2394   YY=              0.2642   ZZ=             -1.5036
   XY=              0.0956   XZ=              0.0000   YZ=              0.0000
 Octapole moment (field-independent basis, Debye-Ang**2):
  XXX=              0.0828  YYY=             -1.2299  ZZZ=              0.0000  XYY=             -0.0791
  XXY=             -1.2367  XXZ=              0.0000  XZZ=              0.0296  YZZ=             -0.2364
  YYZ=              0.0000  XYZ=              0.0000
 Hexadecapole moment (field-independent basis, Debye-Ang**3):
 XXXX=             -7.1486 YYYY=             -8.2563 ZZZZ=             -7.6299 XXXY=             -0.0398
 XXXZ=              0.0000 YYYX=              0.0041 YYYZ=              0.0000 ZZZX=              0.0000
 ZZZY=              0.0000 XXYY=             -2.1117 XXZZ=             -2.6806 YYZZ=             -2.7371
 XXYZ=              0.0000 YYXZ=              0.0000 ZZXY=             -0.0355
 N-N= 8.988729462202D+00 E-N=-1.984361894825D+02  KE= 7.588498149398D+01
 Symmetry A'   KE= 7.143524904768D+01
 Symmetry A"   KE= 4.449732446301D+00
 No NMR shielding tensors so no spin-rotation constants.
 Leave Link  601 at Wed Mar 29 21:52:34 2023, MaxMem=   754974720 cpu:               0.8 elap:               0.4
 (Enter /opt/cluster/programs/g16-c.01/g16/l9999.exe)
 Unable to Open any file for archive entry.
 1\1\GINC-NODE90\SP\RPBE1PBE\Aug-CC-pVDZ\H2O1\BOITTIER\29-Mar-2023\0\\#
 P PBE1PBE/aug-cc-pVDZ scf(maxcycle=200)\\Gaussian input\\0,1\O,0,0.,0.
 11751,0.\H,0,0.7578497316,-0.4701504329,0.\H,0,-0.624542997,-0.6749715
 738,0.\\Version=ES64L-G16RevC.01\State=1-A'\HF=-76.3534895\RMSD=9.220e
 -10\Dipole=0.0902717,-0.8105748,0.\Quadrupole=0.9011592,0.2167256,-1.1
 178848,0.1391418,0.,0.\PG=CS [SG(H2O1)]\\@
 The archive entry for this job was punched.


 OPTIMIST - A PESSIMIST WHO LACKS EXPERIENCE
 Job cpu time:       0 days  0 hours  0 minutes  7.1 seconds.
 Elapsed time:       0 days  0 hours  0 minutes  3.0 seconds.
 File lengths (MBytes):  RWF=      6 Int=      0 D2E=      0 Chk=      1 Scr=      1
 Normal termination of Gaussian 16 at Wed Mar 29 21:52:35 2023.
