 Entering Gaussian System, Link 0=/opt/cluster/programs/g16-c.01/g16/g16
 Input=/scratch/boittier/jobs/tmp.7261855/gaussian_175_water_ccsdt_atz.com
 Output=/scratch/boittier/jobs/tmp.7261855/gaussian_175_water_ccsdt_atz.out
 Initial command:
 /opt/cluster/programs/g16-c.01/g16/l1.exe "/scratch/boittier/jobs/tmp.7261855/Gau-108836.inp" -scrdir="/scratch/boittier/jobs/tmp.7261855/"
 Entering Link 1 = /opt/cluster/programs/g16-c.01/g16/l1.exe PID=    108837.
  
 Copyright (c) 1988-2019, Gaussian, Inc.  All Rights Reserved.
  
 This is part of the Gaussian(R) 16 program.  It is based on
 the Gaussian(R) 09 system (copyright 2009, Gaussian, Inc.),
 the Gaussian(R) 03 system (copyright 2003, Gaussian, Inc.),
 the Gaussian(R) 98 system (copyright 1998, Gaussian, Inc.),
 the Gaussian(R) 94 system (copyright 1995, Gaussian, Inc.),
 the Gaussian 92(TM) system (copyright 1992, Gaussian, Inc.),
 the Gaussian 90(TM) system (copyright 1990, Gaussian, Inc.),
 the Gaussian 88(TM) system (copyright 1988, Gaussian, Inc.),
 the Gaussian 86(TM) system (copyright 1986, Carnegie Mellon
 University), and the Gaussian 82(TM) system (copyright 1983,
 Carnegie Mellon University). Gaussian is a federally registered
 trademark of Gaussian, Inc.
  
 This software contains proprietary and confidential information,
 including trade secrets, belonging to Gaussian, Inc.
  
 This software is provided under written license and may be
 used, copied, transmitted, or stored only in accord with that
 written license.
  
 The following legend is applicable only to US Government
 contracts under FAR:
  
                    RESTRICTED RIGHTS LEGEND
  
 Use, reproduction and disclosure by the US Government is
 subject to restrictions as set forth in subparagraphs (a)
 and (c) of the Commercial Computer Software - Restricted
 Rights clause in FAR 52.227-19.
  
 Gaussian, Inc.
 340 Quinnipiac St., Bldg. 40, Wallingford CT 06492
  
  
 ---------------------------------------------------------------
 Warning -- This program may not be used in any manner that
 competes with the business of Gaussian, Inc. or will provide
 assistance to any competitor of Gaussian, Inc.  The licensee
 of this program is prohibited from giving any competitor of
 Gaussian, Inc. access to this program.  By using this program,
 the user acknowledges that Gaussian, Inc. is engaged in the
 business of creating and licensing software in the field of
 computational chemistry and represents and warrants to the
 licensee that it is not a competitor of Gaussian, Inc. and that
 it will not use this program in any manner prohibited above.
 ---------------------------------------------------------------
  

 Cite this work as:
 Gaussian 16, Revision C.01,
 M. J. Frisch, G. W. Trucks, H. B. Schlegel, G. E. Scuseria, 
 M. A. Robb, J. R. Cheeseman, G. Scalmani, V. Barone, 
 G. A. Petersson, H. Nakatsuji, X. Li, M. Caricato, A. V. Marenich, 
 J. Bloino, B. G. Janesko, R. Gomperts, B. Mennucci, H. P. Hratchian, 
 J. V. Ortiz, A. F. Izmaylov, J. L. Sonnenberg, D. Williams-Young, 
 F. Ding, F. Lipparini, F. Egidi, J. Goings, B. Peng, A. Petrone, 
 T. Henderson, D. Ranasinghe, V. G. Zakrzewski, J. Gao, N. Rega, 
 G. Zheng, W. Liang, M. Hada, M. Ehara, K. Toyota, R. Fukuda, 
 J. Hasegawa, M. Ishida, T. Nakajima, Y. Honda, O. Kitao, H. Nakai, 
 T. Vreven, K. Throssell, J. A. Montgomery, Jr., J. E. Peralta, 
 F. Ogliaro, M. J. Bearpark, J. J. Heyd, E. N. Brothers, K. N. Kudin, 
 V. N. Staroverov, T. A. Keith, R. Kobayashi, J. Normand, 
 K. Raghavachari, A. P. Rendell, J. C. Burant, S. S. Iyengar, 
 J. Tomasi, M. Cossi, J. M. Millam, M. Klene, C. Adamo, R. Cammi, 
 J. W. Ochterski, R. L. Martin, K. Morokuma, O. Farkas, 
 J. B. Foresman, and D. J. Fox, Gaussian, Inc., Wallingford CT, 2019.
 
 ******************************************
 Gaussian 16:  ES64L-G16RevC.01  3-Jul-2019
                 8-Feb-2023 
 ******************************************
 %nproc=4
 Will use up to    4 processors via shared memory.
 %mem=5760MB
 %chk=gaussian_175_water_ccsdt_atz.chk
 ----------------------------------------
 #P CCSD(T)/aug-cc-pVTZ scf(maxcycle=200)
 ----------------------------------------
 1/38=1,172=1/1;
 2/12=2,17=6,18=5,40=1/2;
 3/5=16,6=1,7=10,11=9,25=1,30=1/1,2,3;
 4//1;
 5/5=2,7=200,38=5/2;
 8/6=4,9=120000,10=1/1,4;
 9/5=7,14=2/13;
 6/7=2,8=2,9=2,10=2/1;
 99/5=1,9=1/99;
 Leave Link    1 at Wed Feb  8 13:57:57 2023, MaxMem=   754974720 cpu:               0.1 elap:               0.0
 (Enter /opt/cluster/programs/g16-c.01/g16/l101.exe)
 --------------
 Gaussian input
 --------------
 Symbolic Z-matrix:
 Charge =  0 Multiplicity = 1
 O                     0.        0.11751   0. 
 H                     0.79736  -0.50079   0. 
 H                    -0.89288  -0.35243   0. 
 
 ITRead=  0  0  0
 MicOpt= -1 -1 -1
 NAtoms=      3 NQM=        3 NQMF=       0 NMMI=      0 NMMIF=      0
                NMic=       0 NMicF=      0.
                    Isotopes and Nuclear Properties:
 (Nuclear quadrupole moments (NQMom) in fm**2, nuclear magnetic moments (NMagM)
  in nuclear magnetons)

  Atom         1           2           3
 IAtWgt=          16           1           1
 AtmWgt=  15.9949146   1.0078250   1.0078250
 NucSpn=           0           1           1
 AtZEff=  -0.0000000  -0.0000000  -0.0000000
 NQMom=    0.0000000   0.0000000   0.0000000
 NMagM=    0.0000000   2.7928460   2.7928460
 AtZNuc=   8.0000000   1.0000000   1.0000000
 Leave Link  101 at Wed Feb  8 13:57:57 2023, MaxMem=   754974720 cpu:               0.6 elap:               0.2
 (Enter /opt/cluster/programs/g16-c.01/g16/l202.exe)
                          Input orientation:                          
 ---------------------------------------------------------------------
 Center     Atomic      Atomic             Coordinates (Angstroms)
 Number     Number       Type             X           Y           Z
 ---------------------------------------------------------------------
      1          8           0        0.000000    0.117510    0.000000
      2          1           0        0.797362   -0.500790    0.000000
      3          1           0       -0.892880   -0.352433    0.000000
 ---------------------------------------------------------------------
                    Distance matrix (angstroms):
                    1          2          3
     1  O    0.000000
     2  H    1.009000   0.000000
     3  H    1.009000   1.696740   0.000000
 Stoichiometry    H2O
 Framework group  C2V[C2(O),SGV(H2)]
 Deg. of freedom     2
 Full point group                 C2V     NOp   4
 Largest Abelian subgroup         C2V     NOp   4
 Largest concise Abelian subgroup C2      NOp   2
                         Standard orientation:                         
 ---------------------------------------------------------------------
 Center     Atomic      Atomic             Coordinates (Angstroms)
 Number     Number       Type             X           Y           Z
 ---------------------------------------------------------------------
      1          8           0        0.000000   -0.000000    0.109243
      2          1           0       -0.000000    0.848370   -0.436971
      3          1           0       -0.000000   -0.848370   -0.436971
 ---------------------------------------------------------------------
 Rotational constants (GHZ):         946.2865352         348.3624519         254.6255401
 Leave Link  202 at Wed Feb  8 13:57:57 2023, MaxMem=   754974720 cpu:               0.1 elap:               0.0
 (Enter /opt/cluster/programs/g16-c.01/g16/l301.exe)
 Standard basis: Aug-CC-pVTZ (5D, 7F)
 Ernie: Thresh=  0.10000D-02 Tol=  0.10000D-05 Strict=F.
 Ernie:  3 primitive shells out of 52 were deleted.
 There are    42 symmetry adapted cartesian basis functions of A1  symmetry.
 There are    12 symmetry adapted cartesian basis functions of A2  symmetry.
 There are    20 symmetry adapted cartesian basis functions of B1  symmetry.
 There are    31 symmetry adapted cartesian basis functions of B2  symmetry.
 There are    35 symmetry adapted basis functions of A1  symmetry.
 There are    12 symmetry adapted basis functions of A2  symmetry.
 There are    18 symmetry adapted basis functions of B1  symmetry.
 There are    27 symmetry adapted basis functions of B2  symmetry.
    92 basis functions,   126 primitive gaussians,   105 cartesian basis functions
     5 alpha electrons        5 beta electrons
       nuclear repulsion energy         8.7031922965 Hartrees.
 IExCor=    0 DFT=F Ex=HF Corr=None ExCW=0 ScaHFX=  1.000000
 ScaDFX=  1.000000  1.000000  1.000000  1.000000 ScalE2=  1.000000  1.000000
 IRadAn=      5 IRanWt=     -1 IRanGd=            0 ICorTp=0 IEmpDi=  4
 NAtoms=    3 NActive=    3 NUniq=    2 SFac= 2.25D+00 NAtFMM=   60 NAOKFM=F Big=F
 Integral buffers will be    131072 words long.
 Raffenetti 1 integral format.
 Two-electron integral symmetry is turned on.
 Leave Link  301 at Wed Feb  8 13:57:57 2023, MaxMem=   754974720 cpu:               0.1 elap:               0.0
 (Enter /opt/cluster/programs/g16-c.01/g16/l302.exe)
 NPDir=0 NMtPBC=     1 NCelOv=     1 NCel=       1 NClECP=     1 NCelD=      1
         NCelK=      1 NCelE2=     1 NClLst=     1 CellRange=     0.0.
 One-electron integrals computed using PRISM.
 One-electron integral symmetry used in STVInt
 NBasis=    92 RedAO= T EigKep=  4.04D-04  NBF=    35    12    18    27
 NBsUse=    92 1.00D-06 EigRej= -1.00D+00 NBFU=    35    12    18    27
 Leave Link  302 at Wed Feb  8 13:57:57 2023, MaxMem=   754974720 cpu:               0.4 elap:               0.1
 (Enter /opt/cluster/programs/g16-c.01/g16/l303.exe)
 DipDrv:  MaxL=1.
 Leave Link  303 at Wed Feb  8 13:57:57 2023, MaxMem=   754974720 cpu:               0.2 elap:               0.1
 (Enter /opt/cluster/programs/g16-c.01/g16/l401.exe)
 ExpMin= 2.53D-02 ExpMax= 1.53D+04 ExpMxC= 5.22D+02 IAcc=3 IRadAn=         5 AccDes= 0.00D+00
 Harris functional with IExCor=  205 and IRadAn=       5 diagonalized for initial guess.
 HarFok:  IExCor=  205 AccDes= 0.00D+00 IRadAn=         5 IDoV= 1 UseB2=F ITyADJ=14
 ICtDFT=  3500011 ScaDFX=  1.000000  1.000000  1.000000  1.000000
 FoFCou: FMM=F IPFlag=           0 FMFlag=      100000 FMFlg1=           0
         NFxFlg=           0 DoJE=T BraDBF=F KetDBF=T FulRan=T
         wScrn=  0.000000 ICntrl=       500 IOpCl=  0 I1Cent=   200000004 NGrid=           0
         NMat0=    1 NMatS0=      1 NMatT0=    0 NMatD0=    1 NMtDS0=    0 NMtDT0=    0
 Petite list used in FoFCou.
 Harris En= -76.1456010119450    
 JPrj=0 DoOrth=F DoCkMO=F.
 Initial guess orbital symmetries:
       Occupied  (A1) (A1) (B2) (A1) (B1)
       Virtual   (A1) (B2) (A1) (B1) (A1) (B2) (B2) (A1) (A2) (A1)
                 (B1) (B2) (A1) (B2) (B2) (A1) (A1) (B1) (A2) (A1)
                 (A1) (B1) (B2) (B1) (A2) (B2) (A1) (B2) (A1) (B1)
                 (B2) (A1) (A2) (B2) (A2) (B1) (A1) (B2) (A1) (B2)
                 (A1) (B1) (A2) (A1) (A1) (B1) (B2) (A1) (A1) (B1)
                 (B2) (A2) (B2) (B2) (A1) (B1) (A2) (B2) (A1) (B1)
                 (B2) (B1) (A2) (A1) (B2) (A1) (B2) (A2) (A1) (B1)
                 (B2) (A1) (A1) (B2) (B1) (A1) (B1) (B1) (A1) (A2)
                 (A2) (B2) (A1) (B2) (A1) (B2) (A1)
 The electronic state of the initial guess is 1-A1.
 Leave Link  401 at Wed Feb  8 13:57:58 2023, MaxMem=   754974720 cpu:               0.6 elap:               0.2
 (Enter /opt/cluster/programs/g16-c.01/g16/l502.exe)
 Keep R1 ints in memory in symmetry-blocked form, NReq=11496777.
 FoFCou: FMM=F IPFlag=           0 FMFlag=           0 FMFlg1=           0
         NFxFlg=           0 DoJE=F BraDBF=F KetDBF=F FulRan=T
         wScrn=  0.000000 ICntrl=       600 IOpCl=  0 I1Cent=           0 NGrid=           0
         NMat0=    1 NMatS0=   4278 NMatT0=    0 NMatD0=    1 NMtDS0=    0 NMtDT0=    0
 Petite list used in FoFCou.
 Closed shell SCF:
 Using DIIS extrapolation, IDIIS=  1040.
 NGot=   754974720 LenX=   752607631 LenY=   752596165
 Requested convergence on RMS density matrix=1.00D-08 within 200 cycles.
 Requested convergence on MAX density matrix=1.00D-06.
 Requested convergence on             energy=1.00D-06.
 No special actions if energy rises.

 Cycle   1  Pass 1  IDiag  1:
 E= -75.9634482068330    
 DIIS: error= 5.70D-02 at cycle   1 NSaved=   1.
 NSaved= 1 IEnMin= 1 EnMin= -75.9634482068330     IErMin= 1 ErrMin= 5.70D-02
 ErrMax= 5.70D-02  0.00D+00 EMaxC= 1.00D-01 BMatC= 1.96D-01 BMatP= 1.96D-01
 IDIUse=3 WtCom= 4.30D-01 WtEn= 5.70D-01
 Coeff-Com:  0.100D+01
 Coeff-En:   0.100D+01
 Coeff:      0.100D+01
 Gap=     0.452 Goal=   None    Shift=    0.000
 GapD=    0.452 DampG=2.000 DampE=0.500 DampFc=1.0000 IDamp=-1.
 RMSDP=2.12D-03 MaxDP=4.72D-02              OVMax= 1.25D-01

 Cycle   2  Pass 1  IDiag  1:
 E= -76.0112133331518     Delta-E=       -0.047765126319 Rises=F Damp=F
 DIIS: error= 4.02D-02 at cycle   2 NSaved=   2.
 NSaved= 2 IEnMin= 2 EnMin= -76.0112133331518     IErMin= 2 ErrMin= 4.02D-02
 ErrMax= 4.02D-02  0.00D+00 EMaxC= 1.00D-01 BMatC= 6.10D-02 BMatP= 1.96D-01
 IDIUse=3 WtCom= 5.98D-01 WtEn= 4.02D-01
 Coeff-Com:  0.331D+00 0.669D+00
 Coeff-En:   0.232D+00 0.768D+00
 Coeff:      0.291D+00 0.709D+00
 Gap=     0.558 Goal=   None    Shift=    0.000
 RMSDP=1.30D-03 MaxDP=3.26D-02 DE=-4.78D-02 OVMax= 6.67D-02

 Cycle   3  Pass 1  IDiag  1:
 E= -76.0479641742556     Delta-E=       -0.036750841104 Rises=F Damp=F
 DIIS: error= 8.08D-03 at cycle   3 NSaved=   3.
 NSaved= 3 IEnMin= 3 EnMin= -76.0479641742556     IErMin= 3 ErrMin= 8.08D-03
 ErrMax= 8.08D-03  0.00D+00 EMaxC= 1.00D-01 BMatC= 2.85D-03 BMatP= 6.10D-02
 IDIUse=3 WtCom= 9.19D-01 WtEn= 8.08D-02
 Coeff-Com: -0.316D-01 0.146D+00 0.885D+00
 Coeff-En:   0.000D+00 0.000D+00 0.100D+01
 Coeff:     -0.291D-01 0.135D+00 0.895D+00
 Gap=     0.529 Goal=   None    Shift=    0.000
 RMSDP=2.22D-04 MaxDP=4.25D-03 DE=-3.68D-02 OVMax= 1.33D-02

 Cycle   4  Pass 1  IDiag  1:
 E= -76.0497998828796     Delta-E=       -0.001835708624 Rises=F Damp=F
 DIIS: error= 7.55D-04 at cycle   4 NSaved=   4.
 NSaved= 4 IEnMin= 4 EnMin= -76.0497998828796     IErMin= 4 ErrMin= 7.55D-04
 ErrMax= 7.55D-04  0.00D+00 EMaxC= 1.00D-01 BMatC= 1.75D-05 BMatP= 2.85D-03
 IDIUse=3 WtCom= 9.92D-01 WtEn= 7.55D-03
 Coeff-Com:  0.677D-02-0.549D-01-0.240D+00 0.129D+01
 Coeff-En:   0.000D+00 0.000D+00 0.000D+00 0.100D+01
 Coeff:      0.672D-02-0.545D-01-0.238D+00 0.129D+01
 Gap=     0.531 Goal=   None    Shift=    0.000
 RMSDP=4.44D-05 MaxDP=7.91D-04 DE=-1.84D-03 OVMax= 2.66D-03

 Cycle   5  Pass 1  IDiag  1:
 E= -76.0498318068576     Delta-E=       -0.000031923978 Rises=F Damp=F
 DIIS: error= 2.23D-04 at cycle   5 NSaved=   5.
 NSaved= 5 IEnMin= 5 EnMin= -76.0498318068576     IErMin= 5 ErrMin= 2.23D-04
 ErrMax= 2.23D-04  0.00D+00 EMaxC= 1.00D-01 BMatC= 9.90D-07 BMatP= 1.75D-05
 IDIUse=3 WtCom= 9.98D-01 WtEn= 2.23D-03
 Coeff-Com:  0.799D-03-0.722D-03-0.841D-02-0.252D+00 0.126D+01
 Coeff-En:   0.000D+00 0.000D+00 0.000D+00 0.000D+00 0.100D+01
 Coeff:      0.798D-03-0.720D-03-0.839D-02-0.251D+00 0.126D+01
 Gap=     0.532 Goal=   None    Shift=    0.000
 RMSDP=1.45D-05 MaxDP=2.90D-04 DE=-3.19D-05 OVMax= 9.50D-04

 Cycle   6  Pass 1  IDiag  1:
 E= -76.0498344888375     Delta-E=       -0.000002681980 Rises=F Damp=F
 DIIS: error= 3.83D-05 at cycle   6 NSaved=   6.
 NSaved= 6 IEnMin= 6 EnMin= -76.0498344888375     IErMin= 6 ErrMin= 3.83D-05
 ErrMax= 3.83D-05  0.00D+00 EMaxC= 1.00D-01 BMatC= 3.30D-08 BMatP= 9.90D-07
 IDIUse=1 WtCom= 1.00D+00 WtEn= 0.00D+00
 Coeff-Com: -0.393D-03 0.204D-02 0.958D-02 0.664D-02-0.317D+00 0.130D+01
 Coeff:     -0.393D-03 0.204D-02 0.958D-02 0.664D-02-0.317D+00 0.130D+01
 Gap=     0.532 Goal=   None    Shift=    0.000
 RMSDP=3.23D-06 MaxDP=7.77D-05 DE=-2.68D-06 OVMax= 2.26D-04

 Cycle   7  Pass 1  IDiag  1:
 E= -76.0498345990292     Delta-E=       -0.000000110192 Rises=F Damp=F
 DIIS: error= 7.27D-06 at cycle   7 NSaved=   7.
 NSaved= 7 IEnMin= 7 EnMin= -76.0498345990292     IErMin= 7 ErrMin= 7.27D-06
 ErrMax= 7.27D-06  0.00D+00 EMaxC= 1.00D-01 BMatC= 1.75D-09 BMatP= 3.30D-08
 IDIUse=1 WtCom= 1.00D+00 WtEn= 0.00D+00
 Coeff-Com:  0.484D-04-0.454D-03-0.212D-02 0.157D-01-0.196D-02-0.257D+00
 Coeff-Com:  0.125D+01
 Coeff:      0.484D-04-0.454D-03-0.212D-02 0.157D-01-0.196D-02-0.257D+00
 Coeff:      0.125D+01
 Gap=     0.532 Goal=   None    Shift=    0.000
 RMSDP=4.73D-07 MaxDP=1.29D-05 DE=-1.10D-07 OVMax= 4.50D-05

 Cycle   8  Pass 1  IDiag  1:
 E= -76.0498346032765     Delta-E=       -0.000000004247 Rises=F Damp=F
 DIIS: error= 2.07D-06 at cycle   8 NSaved=   8.
 NSaved= 8 IEnMin= 8 EnMin= -76.0498346032765     IErMin= 8 ErrMin= 2.07D-06
 ErrMax= 2.07D-06  0.00D+00 EMaxC= 1.00D-01 BMatC= 1.05D-10 BMatP= 1.75D-09
 IDIUse=1 WtCom= 1.00D+00 WtEn= 0.00D+00
 Coeff-Com:  0.832D-05 0.172D-04 0.167D-03-0.574D-02 0.193D-01 0.748D-02
 Coeff-Com: -0.412D+00 0.139D+01
 Coeff:      0.832D-05 0.172D-04 0.167D-03-0.574D-02 0.193D-01 0.748D-02
 Coeff:     -0.412D+00 0.139D+01
 Gap=     0.532 Goal=   None    Shift=    0.000
 RMSDP=1.53D-07 MaxDP=3.60D-06 DE=-4.25D-09 OVMax= 1.08D-05

 Cycle   9  Pass 1  IDiag  1:
 E= -76.0498346035438     Delta-E=       -0.000000000267 Rises=F Damp=F
 DIIS: error= 2.41D-07 at cycle   9 NSaved=   9.
 NSaved= 9 IEnMin= 9 EnMin= -76.0498346035438     IErMin= 9 ErrMin= 2.41D-07
 ErrMax= 2.41D-07  0.00D+00 EMaxC= 1.00D-01 BMatC= 1.40D-12 BMatP= 1.05D-10
 IDIUse=1 WtCom= 1.00D+00 WtEn= 0.00D+00
 Coeff-Com: -0.249D-05 0.230D-05-0.175D-04 0.108D-02-0.382D-02-0.172D-03
 Coeff-Com:  0.910D-01-0.385D+00 0.130D+01
 Coeff:     -0.249D-05 0.230D-05-0.175D-04 0.108D-02-0.382D-02-0.172D-03
 Coeff:      0.910D-01-0.385D+00 0.130D+01
 Gap=     0.532 Goal=   None    Shift=    0.000
 RMSDP=2.35D-08 MaxDP=4.47D-07 DE=-2.67D-10 OVMax= 1.02D-06

 Cycle  10  Pass 1  IDiag  1:
 E= -76.0498346035473     Delta-E=       -0.000000000004 Rises=F Damp=F
 DIIS: error= 4.85D-08 at cycle  10 NSaved=  10.
 NSaved=10 IEnMin=10 EnMin= -76.0498346035473     IErMin=10 ErrMin= 4.85D-08
 ErrMax= 4.85D-08  0.00D+00 EMaxC= 1.00D-01 BMatC= 5.64D-14 BMatP= 1.40D-12
 IDIUse=1 WtCom= 1.00D+00 WtEn= 0.00D+00
 Coeff-Com:  0.726D-06-0.138D-05 0.221D-05-0.266D-03 0.101D-02-0.572D-03
 Coeff-Com: -0.205D-01 0.999D-01-0.491D+00 0.141D+01
 Coeff:      0.726D-06-0.138D-05 0.221D-05-0.266D-03 0.101D-02-0.572D-03
 Coeff:     -0.205D-01 0.999D-01-0.491D+00 0.141D+01
 Gap=     0.532 Goal=   None    Shift=    0.000
 RMSDP=5.85D-09 MaxDP=1.49D-07 DE=-3.51D-12 OVMax= 2.97D-07

 SCF Done:  E(RHF) =  -76.0498346035     A.U. after   10 cycles
            NFock= 10  Conv=0.58D-08     -V/T= 2.0039
 KE= 7.575350663772D+01 PE=-1.979415911210D+02 EE= 3.743505758320D+01
 Leave Link  502 at Wed Feb  8 13:57:58 2023, MaxMem=   754974720 cpu:               1.7 elap:               0.5
 (Enter /opt/cluster/programs/g16-c.01/g16/l801.exe)
 Windowed orbitals will be sorted by symmetry type.
 ExpMin= 2.53D-02 ExpMax= 1.53D+04 ExpMxC= 5.22D+02 IAcc=3 IRadAn=         5 AccDes= 0.00D+00
 HarFok:  IExCor=  205 AccDes= 0.00D+00 IRadAn=         5 IDoV=-2 UseB2=F ITyADJ=14
 ICtDFT= 12500011 ScaDFX=  1.000000  1.000000  1.000000  1.000000
 Largest valence mixing into a core orbital is  1.13D-04
 Largest core mixing into a valence orbital is  1.86D-05
 Range of M.O.s used for correlation:     2    92
 NBasis=    92 NAE=     5 NBE=     5 NFC=     1 NFV=     0
 NROrb=     91 NOA=     4 NOB=     4 NVA=    87 NVB=    87

 **** Warning!!: The largest alpha MO coefficient is  0.15312885D+02

 Leave Link  801 at Wed Feb  8 13:57:58 2023, MaxMem=   754974720 cpu:               0.3 elap:               0.1
 (Enter /opt/cluster/programs/g16-c.01/g16/l804.exe)
 Closed-shell transformation, MDV=   754974720 ITran=4 ISComp=2.
 Unit  1 TFree=        277513 TCopy=        242092.
 Semi-Direct transformation.
 ModeAB=           4 MOrb=             4 LenV=     754589018
 LASXX=       368428 LTotXX=      368428 LenRXX=      751146
 LTotAB=      382718 MaxLAS=     1379560 LenRXY=           0
 NonZer=     1119574 LenScr=     2357760 LnRSAI=     1379560
 LnScr1=     2758656 LExtra=           0 Total=      7247122
 MaxDsk=          -1 SrtSym=           T ITran=            4
 DoSDTr:  NPSUse=  4
 JobTyp=0 Pass  1:  I=   1 to   4.
 (rs|ai) integrals will be sorted in core.
 Complete sort for first half transformation.
 First half transformation complete.
 Complete sort for second half transformation.
 Second half transformation complete.
 Spin components of T(2) and E(2):
     alpha-alpha T2 =       0.8519622335D-02 E2=     -0.3298932217D-01
     alpha-beta  T2 =       0.4983080497D-01 E2=     -0.2059897910D+00
     beta-beta   T2 =       0.8519622335D-02 E2=     -0.3298932217D-01
 ANorm=    0.1032894017D+01
 E2 =    -0.2719684353D+00 EUMP2 =    -0.76321803038855D+02
 Leave Link  804 at Wed Feb  8 13:57:59 2023, MaxMem=   754974720 cpu:               1.4 elap:               0.4
 (Enter /opt/cluster/programs/g16-c.01/g16/l913.exe)
 CIDS:  MDV=   754974720.
 Frozen-core window:  NFC=   1 NFV=   0.
 IFCWin=0 IBDFC=1 NFBD=     0     0 NFCmp=     0     0 NFFFC=     0     0
 Using DD3R+UMP44R for 1st iteration.
 Using DD4RQ for 2nd and later iterations.
 Keep R2 and R3 ints in memory in symmetry-blocked form, NReq=11500115.
 FoFCou: FMM=F IPFlag=           0 FMFlag=           0 FMFlg1=           0
         NFxFlg=           0 DoJE=F BraDBF=F KetDBF=F FulRan=T
         wScrn=  0.000000 ICntrl=       600 IOpCl=  0 I1Cent=           0 NGrid=           0
         NMat0=    1 NMatS0=   4278 NMatT0=    0 NMatD0=    1 NMtDS0=    0 NMtDT0=    0
 Petite list used in FoFCou.
 CIDS: In Core Option IDoMem=           1.
 CCSD(T)
 =======
 Iterations=  50 Convergence= 0.100D-06
 Produce multiple copies of IABC intergrals
 Iteration Nr.   1
 **********************
 DD1Dir will call FoFMem   1 times, MxPair=        20
 NAB=    10 NAA=     0 NBB=     0.
 MP4(R+Q)=  0.42336151D-02
 Maximum subspace dimension=  5
 A-vector RMS=  3.0620431D-03 Max=  1.3530894D-02 conv= 1.00D-05.
 RLE energy=       -0.2694767459
 E3=       -0.17639272D-02        EUMP3=      -0.76323566966D+02
 E4(DQ)=   -0.94008581D-03        UMP4(DQ)=   -0.76324507052D+02
 E4(SDQ)=  -0.30468731D-02        UMP4(SDQ)=  -0.76326613839D+02
 VARIATIONAL ENERGIES WITH THE FIRST-ORDER WAVEFUNCTION:
 DE(Corr)= -0.26945371     E(Corr)=     -76.319288318    
 NORM(A)=   0.10325476D+01
 Iteration Nr.   2
 **********************
 DD1Dir will call FoFMem   1 times, MxPair=        20
 NAB=    10 NAA=     0 NBB=     0.
 A-vector RMS=  3.4592065D-04 Max=  2.4459136D-03 conv= 1.00D-05.
 RLE energy=       -0.2758259815
 DE(Corr)= -0.27540432     E(CORR)=     -76.325238925     Delta=-5.95D-03
 NORM(A)=   0.10349813D+01
 Iteration Nr.   3
 **********************
 DD1Dir will call FoFMem   1 times, MxPair=        20
 NAB=    10 NAA=     0 NBB=     0.
 A-vector RMS=  4.4688858D-04 Max=  2.5472586D-03 conv= 1.00D-05.
 RLE energy=       -0.2761942630
 DE(Corr)= -0.27575437     E(CORR)=     -76.325588972     Delta=-3.50D-04
 NORM(A)=   0.10354946D+01
 Iteration Nr.   4
 **********************
 DD1Dir will call FoFMem   1 times, MxPair=        20
 NAB=    10 NAA=     0 NBB=     0.
 A-vector RMS=  7.4006520D-05 Max=  4.3489531D-04 conv= 1.00D-05.
 RLE energy=       -0.2762350259
 DE(Corr)= -0.27620076     E(CORR)=     -76.326035365     Delta=-4.46D-04
 NORM(A)=   0.10356312D+01
 Iteration Nr.   5
 **********************
 DD1Dir will call FoFMem   1 times, MxPair=        20
 NAB=    10 NAA=     0 NBB=     0.
 A-vector RMS=  3.6701453D-05 Max=  2.1393117D-04 conv= 1.00D-05.
 RLE energy=       -0.2762505685
 DE(Corr)= -0.27624349     E(CORR)=     -76.326078098     Delta=-4.27D-05
 NORM(A)=   0.10356602D+01
 Iteration Nr.   6
 **********************
 DD1Dir will call FoFMem   1 times, MxPair=        20
 NAB=    10 NAA=     0 NBB=     0.
 A-vector RMS=  9.1503027D-06 Max=  4.0645121D-05 conv= 1.00D-05.
 RLE energy=       -0.2762458029
 DE(Corr)= -0.27624723     E(CORR)=     -76.326081837     Delta=-3.74D-06
 NORM(A)=   0.10356627D+01
 Iteration Nr.   7
 **********************
 DD1Dir will call FoFMem   1 times, MxPair=        20
 NAB=    10 NAA=     0 NBB=     0.
 A-vector RMS=  3.8527451D-06 Max=  2.2687771D-05 conv= 1.00D-05.
 RLE energy=       -0.2762461047
 DE(Corr)= -0.27624732     E(CORR)=     -76.326081922     Delta=-8.57D-08
 NORM(A)=   0.10356635D+01
 Iteration Nr.   8
 **********************
 DD1Dir will call FoFMem   1 times, MxPair=        20
 NAB=    10 NAA=     0 NBB=     0.
 A-vector RMS=  1.4247621D-06 Max=  7.4090943D-06 conv= 1.00D-05.
 RLE energy=       -0.2762467707
 DE(Corr)= -0.27624695     E(CORR)=     -76.326081553     Delta= 3.69D-07
 NORM(A)=   0.10356640D+01
 Iteration Nr.   9
 **********************
 DD1Dir will call FoFMem   1 times, MxPair=        20
 NAB=    10 NAA=     0 NBB=     0.
 A-vector RMS=  4.9707963D-07 Max=  2.8933648D-06 conv= 1.00D-05.
 RLE energy=       -0.2762469630
 DE(Corr)= -0.27624699     E(CORR)=     -76.326081593     Delta=-3.91D-08
 NORM(A)=   0.10356643D+01
 CI/CC converged in    9 iterations to DelEn=-3.91D-08 Conv= 1.00D-07 ErrA1= 4.97D-07 Conv= 1.00D-05
 Wavefunction amplitudes converged. E(Corr)=     -76.326081593    
 Largest amplitude= 2.33D-02
 IPart=  3 IA=    6   11.23% done.
 IPart=  4 IA=   11   21.79% done.
 IPart=  1 IA=   16   31.68% done.
 IPart=  3 IA=   21   40.90% done.
 IPart=  4 IA=   27   51.08% done.
 IPart=  2 IA=   33   60.30% done.
 IPart=  2 IA=   41   71.10% done.
 IPart=  3 IA=   49   80.19% done.
 IPart=  1 IA=   61   90.62% done.
 Time for triples=        6.06 seconds.
 T4(CCSD)= -0.94777055D-02
 T5(CCSD)=  0.36142015D-03
 CCSD(T)= -0.76335197878D+02
 Discarding MO integrals.
 Leave Link  913 at Wed Feb  8 13:58:01 2023, MaxMem=   754974720 cpu:               9.7 elap:               2.4
 (Enter /opt/cluster/programs/g16-c.01/g16/l601.exe)
 Copying SCF densities to generalized density rwf, IOpCl= 0 IROHF=0.

 **********************************************************************

            Population analysis using the SCF Density.

 **********************************************************************

 Orbital symmetries:
       Occupied  (A1) (A1) (B2) (A1) (B1)
       Virtual   (A1) (B2) (A1) (B1) (A1) (B2) (B2) (A1) (A2) (B1)
                 (A1) (B2) (A1) (B2) (B2) (A1) (A1) (A2) (B1) (A1)
                 (B1) (B2) (A1) (A2) (B2) (B1) (A1) (A1) (B2) (B1)
                 (B2) (A1) (A2) (B2) (A2) (B1) (A1) (B2) (A1) (B2)
                 (A1) (B1) (A2) (A1) (A1) (B1) (B2) (A1) (A1) (B1)
                 (B2) (A2) (B2) (B2) (A1) (A2) (B1) (B2) (A1) (B1)
                 (A2) (B1) (B2) (A1) (A1) (B2) (B2) (A2) (A1) (B2)
                 (B1) (A1) (A1) (B2) (B1) (A1) (B1) (A2) (B1) (A1)
                 (B2) (A2) (A1) (B2) (A1) (B2) (A1)
 The electronic state is 1-A1.
 Alpha  occ. eigenvalues --  -20.57084  -1.32225  -0.70649  -0.55642  -0.50298
 Alpha virt. eigenvalues --    0.02924   0.04683   0.13683   0.15958   0.17001
 Alpha virt. eigenvalues --    0.18044   0.22649   0.24133   0.26104   0.30906
 Alpha virt. eigenvalues --    0.31599   0.36345   0.42478   0.45738   0.60379
 Alpha virt. eigenvalues --    0.64213   0.71342   0.71602   0.72963   0.80712
 Alpha virt. eigenvalues --    0.83851   0.89942   0.90051   0.90969   0.92726
 Alpha virt. eigenvalues --    0.93985   0.98051   1.00814   1.02954   1.07901
 Alpha virt. eigenvalues --    1.11237   1.14922   1.15060   1.28178   1.50861
 Alpha virt. eigenvalues --    1.57903   1.61353   1.68295   1.81196   1.96124
 Alpha virt. eigenvalues --    2.06243   2.24671   2.30928   2.31408   2.38269
 Alpha virt. eigenvalues --    2.38300   2.43297   2.49510   2.71027   2.72908
 Alpha virt. eigenvalues --    2.74191   2.84450   2.91056   3.52869   3.70875
 Alpha virt. eigenvalues --    3.97182   4.03455   4.14374   4.17430   4.28922
 Alpha virt. eigenvalues --    4.37295   4.37788   4.41434   4.54380   4.58331
 Alpha virt. eigenvalues --    4.61852   4.98307   5.06409   5.11890   5.29187
 Alpha virt. eigenvalues --    5.33300   5.66260   5.96990   6.58750   6.68304
 Alpha virt. eigenvalues --    6.74733   7.11100   7.14985   7.20720   7.23917
 Alpha virt. eigenvalues --    7.36635   7.37269   7.42761   7.69664   7.90722
 Alpha virt. eigenvalues --    8.46631  14.45584
          Condensed to atoms (all electrons):
               1          2          3
     1  O    7.993104   0.262246   0.262246
     2  H    0.262246   0.452257   0.026699
     3  H    0.262246   0.026699   0.452257
 Mulliken charges:
               1
     1  O   -0.517597
     2  H    0.258798
     3  H    0.258798
 Sum of Mulliken charges =  -0.00000
 Mulliken charges with hydrogens summed into heavy atoms:
               1
     1  O   -0.000000
 Electronic spatial extent (au):  <R**2>=             20.1786
 Charge=             -0.0000 electrons
 Dipole moment (field-independent basis, Debye):
    X=             -0.0000    Y=             -0.0000    Z=             -1.8453  Tot=              1.8453
 Quadrupole moment (field-independent basis, Debye-Ang):
   XX=             -7.6967   YY=             -3.6447   ZZ=             -6.5927
   XY=              0.0000   XZ=              0.0000   YZ=              0.0000
 Traceless Quadrupole moment (field-independent basis, Debye-Ang):
   XX=             -1.7186   YY=              2.3333   ZZ=             -0.6147
   XY=              0.0000   XZ=              0.0000   YZ=              0.0000
 Octapole moment (field-independent basis, Debye-Ang**2):
  XXX=              0.0000  YYY=             -0.0000  ZZZ=             -0.8894  XYY=             -0.0000
  XXY=              0.0000  XXZ=             -0.2014  XZZ=              0.0000  YZZ=             -0.0000
  YYZ=             -1.5754  XYZ=             -0.0000
 Hexadecapole moment (field-independent basis, Debye-Ang**3):
 XXXX=             -6.9647 YYYY=             -5.8541 ZZZZ=             -7.6079 XXXY=             -0.0000
 XXXZ=             -0.0000 YYYX=              0.0000 YYYZ=              0.0000 ZZZX=             -0.0000
 ZZZY=             -0.0000 XXYY=             -2.6575 XXZZ=             -2.4647 YYZZ=             -2.0205
 XXYZ=             -0.0000 YYXZ=              0.0000 ZZXY=             -0.0000
 N-N= 8.703192296482D+00 E-N=-1.979415911456D+02  KE= 7.575350663772D+01
 Symmetry A1   KE= 6.787391061771D+01
 Symmetry A2   KE=-1.005982036547D-19
 Symmetry B1   KE= 4.462249965202D+00
 Symmetry B2   KE= 3.417346054817D+00
 Leave Link  601 at Wed Feb  8 13:58:01 2023, MaxMem=   754974720 cpu:               0.3 elap:               0.1
 (Enter /opt/cluster/programs/g16-c.01/g16/l9999.exe)
 Unable to Open any file for archive entry.
 1\1\GINC-NODE65\SP\RCCSD(T)-FC\Aug-CC-pVTZ\H2O1\BOITTIER\08-Feb-2023\0
 \\#P CCSD(T)/aug-cc-pVTZ scf(maxcycle=200)\\Gaussian input\\0,1\O,0,0.
 ,0.11751,0.\H,0,0.7973622306,-0.5007896629,0.\H,0,-0.8928797131,-0.352
 43342,0.\\Version=ES64L-G16RevC.01\State=1-A1\HF=-76.0498346\MP2=-76.3
 21803\MP3=-76.323567\MP4D=-76.3287407\MP4DQ=-76.3245071\MP4SDQ=-76.326
 6138\CCSD=-76.3260816\CCSD(T)=-76.3351979\RMSD=5.846e-09\PG=C02V [C2(O
 1),SGV(H2)]\\@
 The archive entry for this job was punched.


 THE WORLD IS NOT A HAMBURGER - YOU CAN'T HAVE IT YOUR WAY.
 Job cpu time:       0 days  0 hours  0 minutes 15.9 seconds.
 Elapsed time:       0 days  0 hours  0 minutes  4.2 seconds.
 File lengths (MBytes):  RWF=     64 Int=      0 D2E=      0 Chk=      2 Scr=      1
 Normal termination of Gaussian 16 at Wed Feb  8 13:58:01 2023.
