 Entering Gaussian System, Link 0=/opt/cluster/programs/g16-c.01/g16/g16
 Input=/scratch/boittier/jobs/tmp.7311980/gaussian_152_water_hf_adz2.com
 Output=/scratch/boittier/jobs/tmp.7311980/gaussian_152_water_hf_adz2.out
 Initial command:
 /opt/cluster/programs/g16-c.01/g16/l1.exe "/scratch/boittier/jobs/tmp.7311980/Gau-182748.inp" -scrdir="/scratch/boittier/jobs/tmp.7311980/"
 Entering Link 1 = /opt/cluster/programs/g16-c.01/g16/l1.exe PID=    182749.
  
 Copyright (c) 1988-2019, Gaussian, Inc.  All Rights Reserved.
  
 This is part of the Gaussian(R) 16 program.  It is based on
 the Gaussian(R) 09 system (copyright 2009, Gaussian, Inc.),
 the Gaussian(R) 03 system (copyright 2003, Gaussian, Inc.),
 the Gaussian(R) 98 system (copyright 1998, Gaussian, Inc.),
 the Gaussian(R) 94 system (copyright 1995, Gaussian, Inc.),
 the Gaussian 92(TM) system (copyright 1992, Gaussian, Inc.),
 the Gaussian 90(TM) system (copyright 1990, Gaussian, Inc.),
 the Gaussian 88(TM) system (copyright 1988, Gaussian, Inc.),
 the Gaussian 86(TM) system (copyright 1986, Carnegie Mellon
 University), and the Gaussian 82(TM) system (copyright 1983,
 Carnegie Mellon University). Gaussian is a federally registered
 trademark of Gaussian, Inc.
  
 This software contains proprietary and confidential information,
 including trade secrets, belonging to Gaussian, Inc.
  
 This software is provided under written license and may be
 used, copied, transmitted, or stored only in accord with that
 written license.
  
 The following legend is applicable only to US Government
 contracts under FAR:
  
                    RESTRICTED RIGHTS LEGEND
  
 Use, reproduction and disclosure by the US Government is
 subject to restrictions as set forth in subparagraphs (a)
 and (c) of the Commercial Computer Software - Restricted
 Rights clause in FAR 52.227-19.
  
 Gaussian, Inc.
 340 Quinnipiac St., Bldg. 40, Wallingford CT 06492
  
  
 ---------------------------------------------------------------
 Warning -- This program may not be used in any manner that
 competes with the business of Gaussian, Inc. or will provide
 assistance to any competitor of Gaussian, Inc.  The licensee
 of this program is prohibited from giving any competitor of
 Gaussian, Inc. access to this program.  By using this program,
 the user acknowledges that Gaussian, Inc. is engaged in the
 business of creating and licensing software in the field of
 computational chemistry and represents and warrants to the
 licensee that it is not a competitor of Gaussian, Inc. and that
 it will not use this program in any manner prohibited above.
 ---------------------------------------------------------------
  

 Cite this work as:
 Gaussian 16, Revision C.01,
 M. J. Frisch, G. W. Trucks, H. B. Schlegel, G. E. Scuseria, 
 M. A. Robb, J. R. Cheeseman, G. Scalmani, V. Barone, 
 G. A. Petersson, H. Nakatsuji, X. Li, M. Caricato, A. V. Marenich, 
 J. Bloino, B. G. Janesko, R. Gomperts, B. Mennucci, H. P. Hratchian, 
 J. V. Ortiz, A. F. Izmaylov, J. L. Sonnenberg, D. Williams-Young, 
 F. Ding, F. Lipparini, F. Egidi, J. Goings, B. Peng, A. Petrone, 
 T. Henderson, D. Ranasinghe, V. G. Zakrzewski, J. Gao, N. Rega, 
 G. Zheng, W. Liang, M. Hada, M. Ehara, K. Toyota, R. Fukuda, 
 J. Hasegawa, M. Ishida, T. Nakajima, Y. Honda, O. Kitao, H. Nakai, 
 T. Vreven, K. Throssell, J. A. Montgomery, Jr., J. E. Peralta, 
 F. Ogliaro, M. J. Bearpark, J. J. Heyd, E. N. Brothers, K. N. Kudin, 
 V. N. Staroverov, T. A. Keith, R. Kobayashi, J. Normand, 
 K. Raghavachari, A. P. Rendell, J. C. Burant, S. S. Iyengar, 
 J. Tomasi, M. Cossi, J. M. Millam, M. Klene, C. Adamo, R. Cammi, 
 J. W. Ochterski, R. L. Martin, K. Morokuma, O. Farkas, 
 J. B. Foresman, and D. J. Fox, Gaussian, Inc., Wallingford CT, 2019.
 
 ******************************************
 Gaussian 16:  ES64L-G16RevC.01  3-Jul-2019
                20-Feb-2023 
 ******************************************
 %nproc=4
 Will use up to    4 processors via shared memory.
 %mem=5760MB
 %chk=gaussian_152_water_hf_adz2.chk
 -----------------------------------
 #P HF/aug-cc-pVDZ scf(maxcycle=200)
 -----------------------------------
 1/38=1,172=1/1;
 2/12=2,17=6,18=5,40=1/2;
 3/5=16,7=10,11=9,25=1,30=1/1,2,3;
 4//1;
 5/5=2,7=200,38=5/2;
 6/7=2,8=2,9=2,10=2,28=1/1;
 99/5=1,9=1/99;
 Leave Link    1 at Mon Feb 20 10:17:07 2023, MaxMem=   754974720 cpu:               0.1 elap:               0.0
 (Enter /opt/cluster/programs/g16-c.01/g16/l101.exe)
 --------------
 Gaussian input
 --------------
 Symbolic Z-matrix:
 Charge =  0 Multiplicity = 1
 O                     0.        0.11751   0. 
 H                     0.79736  -0.50079   0. 
 H                    -0.7973   -0.41541   0. 
 
 ITRead=  0  0  0
 MicOpt= -1 -1 -1
 NAtoms=      3 NQM=        3 NQMF=       0 NMMI=      0 NMMIF=      0
                NMic=       0 NMicF=      0.
                    Isotopes and Nuclear Properties:
 (Nuclear quadrupole moments (NQMom) in fm**2, nuclear magnetic moments (NMagM)
  in nuclear magnetons)

  Atom         1           2           3
 IAtWgt=          16           1           1
 AtmWgt=  15.9949146   1.0078250   1.0078250
 NucSpn=           0           1           1
 AtZEff=  -0.0000000  -0.0000000  -0.0000000
 NQMom=    0.0000000   0.0000000   0.0000000
 NMagM=    0.0000000   2.7928460   2.7928460
 AtZNuc=   8.0000000   1.0000000   1.0000000
 Leave Link  101 at Mon Feb 20 10:17:07 2023, MaxMem=   754974720 cpu:               0.4 elap:               0.2
 (Enter /opt/cluster/programs/g16-c.01/g16/l202.exe)
                          Input orientation:                          
 ---------------------------------------------------------------------
 Center     Atomic      Atomic             Coordinates (Angstroms)
 Number     Number       Type             X           Y           Z
 ---------------------------------------------------------------------
      1          8           0        0.000000    0.117510    0.000000
      2          1           0        0.797362   -0.500790    0.000000
      3          1           0       -0.797297   -0.415405    0.000000
 ---------------------------------------------------------------------
                    Distance matrix (angstroms):
                    1          2          3
     1  O    0.000000
     2  H    1.009000   0.000000
     3  H    0.959000   1.596943   0.000000
 Stoichiometry    H2O
 Framework group  CS[SG(H2O)]
 Deg. of freedom     3
 Full point group                 CS      NOp   2
 Largest Abelian subgroup         CS      NOp   2
 Largest concise Abelian subgroup C1      NOp   1
                         Standard orientation:                         
 ---------------------------------------------------------------------
 Center     Atomic      Atomic             Coordinates (Angstroms)
 Number     Number       Type             X           Y           Z
 ---------------------------------------------------------------------
      1          8           0        0.000000    0.115122    0.000000
      2          1           0        0.797327   -0.503223   -0.000000
      3          1           0       -0.797327   -0.417749    0.000000
 ---------------------------------------------------------------------
 Rotational constants (GHZ):         856.6446739         392.3040862         269.0784576
 Leave Link  202 at Mon Feb 20 10:17:07 2023, MaxMem=   754974720 cpu:               0.1 elap:               0.0
 (Enter /opt/cluster/programs/g16-c.01/g16/l301.exe)
 Standard basis: Aug-CC-pVDZ (5D, 7F)
 Ernie: Thresh=  0.10000D-02 Tol=  0.10000D-05 Strict=F.
 Ernie:  2 primitive shells out of 39 were deleted.
 There are    32 symmetry adapted cartesian basis functions of A'  symmetry.
 There are    11 symmetry adapted cartesian basis functions of A"  symmetry.
 There are    30 symmetry adapted basis functions of A'  symmetry.
 There are    11 symmetry adapted basis functions of A"  symmetry.
    41 basis functions,    65 primitive gaussians,    43 cartesian basis functions
     5 alpha electrons        5 beta electrons
       nuclear repulsion energy         8.9414340293 Hartrees.
 IExCor=    0 DFT=F Ex=HF Corr=None ExCW=0 ScaHFX=  1.000000
 ScaDFX=  1.000000  1.000000  1.000000  1.000000 ScalE2=  1.000000  1.000000
 IRadAn=      5 IRanWt=     -1 IRanGd=            0 ICorTp=0 IEmpDi=  4
 NAtoms=    3 NActive=    3 NUniq=    3 SFac= 1.00D+00 NAtFMM=   60 NAOKFM=F Big=F
 Integral buffers will be    131072 words long.
 Raffenetti 1 integral format.
 Two-electron integral symmetry is turned on.
 Leave Link  301 at Mon Feb 20 10:17:07 2023, MaxMem=   754974720 cpu:               0.1 elap:               0.1
 (Enter /opt/cluster/programs/g16-c.01/g16/l302.exe)
 NPDir=0 NMtPBC=     1 NCelOv=     1 NCel=       1 NClECP=     1 NCelD=      1
         NCelK=      1 NCelE2=     1 NClLst=     1 CellRange=     0.0.
 One-electron integrals computed using PRISM.
 One-electron integral symmetry used in STVInt
 NBasis=    41 RedAO= T EigKep=  2.97D-03  NBF=    30    11
 NBsUse=    41 1.00D-06 EigRej= -1.00D+00 NBFU=    30    11
 Leave Link  302 at Mon Feb 20 10:17:08 2023, MaxMem=   754974720 cpu:               1.5 elap:               0.5
 (Enter /opt/cluster/programs/g16-c.01/g16/l303.exe)
 DipDrv:  MaxL=1.
 Leave Link  303 at Mon Feb 20 10:17:08 2023, MaxMem=   754974720 cpu:               0.5 elap:               0.3
 (Enter /opt/cluster/programs/g16-c.01/g16/l401.exe)
 ExpMin= 2.97D-02 ExpMax= 1.17D+04 ExpMxC= 4.01D+02 IAcc=3 IRadAn=         5 AccDes= 0.00D+00
 Harris functional with IExCor=  205 and IRadAn=       5 diagonalized for initial guess.
 HarFok:  IExCor=  205 AccDes= 0.00D+00 IRadAn=         5 IDoV= 1 UseB2=F ITyADJ=14
 ICtDFT=  3500011 ScaDFX=  1.000000  1.000000  1.000000  1.000000
 FoFCou: FMM=F IPFlag=           0 FMFlag=      100000 FMFlg1=           0
         NFxFlg=           0 DoJE=T BraDBF=F KetDBF=T FulRan=T
         wScrn=  0.000000 ICntrl=       500 IOpCl=  0 I1Cent=   200000004 NGrid=           0
         NMat0=    1 NMatS0=      1 NMatT0=    0 NMatD0=    1 NMtDS0=    0 NMtDT0=    0
 Petite list used in FoFCou.
 Harris En= -76.1221871273964    
 JPrj=0 DoOrth=F DoCkMO=F.
 Initial guess orbital symmetries:
       Occupied  (A') (A') (A') (A') (A")
       Virtual   (A') (A') (A') (A") (A') (A') (A') (A') (A") (A')
                 (A") (A') (A') (A') (A') (A') (A") (A') (A") (A')
                 (A") (A') (A') (A') (A") (A") (A') (A') (A') (A')
                 (A') (A") (A') (A") (A') (A')
 The electronic state of the initial guess is 1-A'.
 Leave Link  401 at Mon Feb 20 10:17:09 2023, MaxMem=   754974720 cpu:               2.2 elap:               1.1
 (Enter /opt/cluster/programs/g16-c.01/g16/l502.exe)
 Keep R1 ints in memory in symmetry-blocked form, NReq=1210668.
 FoFCou: FMM=F IPFlag=           0 FMFlag=           0 FMFlg1=           0
         NFxFlg=           0 DoJE=F BraDBF=F KetDBF=F FulRan=T
         wScrn=  0.000000 ICntrl=       600 IOpCl=  0 I1Cent=           0 NGrid=           0
         NMat0=    1 NMatS0=    861 NMatT0=    0 NMatD0=    1 NMtDS0=    0 NMtDT0=    0
 Petite list used in FoFCou.
 Closed shell SCF:
 Using DIIS extrapolation, IDIIS=  1040.
 NGot=   754974720 LenX=   754771907 LenY=   754769617
 Requested convergence on RMS density matrix=1.00D-08 within 200 cycles.
 Requested convergence on MAX density matrix=1.00D-06.
 Requested convergence on             energy=1.00D-06.
 No special actions if energy rises.

 Cycle   1  Pass 1  IDiag  1:
 E= -75.9626199968417    
 DIIS: error= 4.99D-02 at cycle   1 NSaved=   1.
 NSaved= 1 IEnMin= 1 EnMin= -75.9626199968417     IErMin= 1 ErrMin= 4.99D-02
 ErrMax= 4.99D-02  0.00D+00 EMaxC= 1.00D-01 BMatC= 1.13D-01 BMatP= 1.13D-01
 IDIUse=3 WtCom= 5.01D-01 WtEn= 4.99D-01
 Coeff-Com:  0.100D+01
 Coeff-En:   0.100D+01
 Coeff:      0.100D+01
 Gap=     0.459 Goal=   None    Shift=    0.000
 GapD=    0.459 DampG=2.000 DampE=0.500 DampFc=1.0000 IDamp=-1.
 RMSDP=6.17D-03 MaxDP=1.14D-01              OVMax= 1.19D-01

 Cycle   2  Pass 1  IDiag  1:
 E= -76.0046954231408     Delta-E=       -0.042075426299 Rises=F Damp=F
 DIIS: error= 4.03D-02 at cycle   2 NSaved=   2.
 NSaved= 2 IEnMin= 2 EnMin= -76.0046954231408     IErMin= 2 ErrMin= 4.03D-02
 ErrMax= 4.03D-02  0.00D+00 EMaxC= 1.00D-01 BMatC= 4.55D-02 BMatP= 1.13D-01
 IDIUse=3 WtCom= 5.97D-01 WtEn= 4.03D-01
 Coeff-Com:  0.377D+00 0.623D+00
 Coeff-En:   0.225D+00 0.775D+00
 Coeff:      0.316D+00 0.684D+00
 Gap=     0.558 Goal=   None    Shift=    0.000
 RMSDP=2.93D-03 MaxDP=5.43D-02 DE=-4.21D-02 OVMax= 5.90D-02

 Cycle   3  Pass 1  IDiag  1:
 E= -76.0362284042910     Delta-E=       -0.031532981150 Rises=F Damp=F
 DIIS: error= 4.50D-03 at cycle   3 NSaved=   3.
 NSaved= 3 IEnMin= 3 EnMin= -76.0362284042910     IErMin= 3 ErrMin= 4.50D-03
 ErrMax= 4.50D-03  0.00D+00 EMaxC= 1.00D-01 BMatC= 1.12D-03 BMatP= 4.55D-02
 IDIUse=3 WtCom= 9.55D-01 WtEn= 4.50D-02
 Coeff-Com: -0.382D-01 0.907D-01 0.947D+00
 Coeff-En:   0.000D+00 0.000D+00 0.100D+01
 Coeff:     -0.365D-01 0.867D-01 0.950D+00
 Gap=     0.540 Goal=   None    Shift=    0.000
 RMSDP=4.66D-04 MaxDP=8.15D-03 DE=-3.15D-02 OVMax= 9.41D-03

 Cycle   4  Pass 1  IDiag  1:
 E= -76.0370934487193     Delta-E=       -0.000865044428 Rises=F Damp=F
 DIIS: error= 6.91D-04 at cycle   4 NSaved=   4.
 NSaved= 4 IEnMin= 4 EnMin= -76.0370934487193     IErMin= 4 ErrMin= 6.91D-04
 ErrMax= 6.91D-04  0.00D+00 EMaxC= 1.00D-01 BMatC= 8.34D-06 BMatP= 1.12D-03
 IDIUse=3 WtCom= 9.93D-01 WtEn= 6.91D-03
 Coeff-Com:  0.885D-02-0.431D-01-0.332D+00 0.137D+01
 Coeff-En:   0.000D+00 0.000D+00 0.000D+00 0.100D+01
 Coeff:      0.878D-02-0.428D-01-0.329D+00 0.136D+01
 Gap=     0.541 Goal=   None    Shift=    0.000
 RMSDP=1.20D-04 MaxDP=1.28D-03 DE=-8.65D-04 OVMax= 2.38D-03

 Cycle   5  Pass 1  IDiag  1:
 E= -76.0371145581906     Delta-E=       -0.000021109471 Rises=F Damp=F
 DIIS: error= 1.91D-04 at cycle   5 NSaved=   5.
 NSaved= 5 IEnMin= 5 EnMin= -76.0371145581906     IErMin= 5 ErrMin= 1.91D-04
 ErrMax= 1.91D-04  0.00D+00 EMaxC= 1.00D-01 BMatC= 3.79D-07 BMatP= 8.34D-06
 IDIUse=3 WtCom= 9.98D-01 WtEn= 1.91D-03
 Coeff-Com:  0.115D-03 0.294D-02 0.191D-01-0.269D+00 0.125D+01
 Coeff-En:   0.000D+00 0.000D+00 0.000D+00 0.000D+00 0.100D+01
 Coeff:      0.115D-03 0.294D-02 0.191D-01-0.268D+00 0.125D+01
 Gap=     0.541 Goal=   None    Shift=    0.000
 RMSDP=2.90D-05 MaxDP=4.24D-04 DE=-2.11D-05 OVMax= 6.21D-04

 Cycle   6  Pass 1  IDiag  1:
 E= -76.0371157360425     Delta-E=       -0.000001177852 Rises=F Damp=F
 DIIS: error= 3.79D-05 at cycle   6 NSaved=   6.
 NSaved= 6 IEnMin= 6 EnMin= -76.0371157360425     IErMin= 6 ErrMin= 3.79D-05
 ErrMax= 3.79D-05  0.00D+00 EMaxC= 1.00D-01 BMatC= 1.56D-08 BMatP= 3.79D-07
 IDIUse=1 WtCom= 1.00D+00 WtEn= 0.00D+00
 Coeff-Com: -0.407D-03 0.147D-02 0.120D-01-0.198D-01-0.238D+00 0.125D+01
 Coeff:     -0.407D-03 0.147D-02 0.120D-01-0.198D-01-0.238D+00 0.125D+01
 Gap=     0.541 Goal=   None    Shift=    0.000
 RMSDP=5.40D-06 MaxDP=1.05D-04 DE=-1.18D-06 OVMax= 1.39D-04

 Cycle   7  Pass 1  IDiag  1:
 E= -76.0371157860989     Delta-E=       -0.000000050056 Rises=F Damp=F
 DIIS: error= 7.21D-06 at cycle   7 NSaved=   7.
 NSaved= 7 IEnMin= 7 EnMin= -76.0371157860989     IErMin= 7 ErrMin= 7.21D-06
 ErrMax= 7.21D-06  0.00D+00 EMaxC= 1.00D-01 BMatC= 7.46D-10 BMatP= 1.56D-08
 IDIUse=1 WtCom= 1.00D+00 WtEn= 0.00D+00
 Coeff-Com:  0.149D-03-0.699D-03-0.573D-02 0.227D-01 0.238D-01-0.424D+00
 Coeff-Com:  0.138D+01
 Coeff:      0.149D-03-0.699D-03-0.573D-02 0.227D-01 0.238D-01-0.424D+00
 Coeff:      0.138D+01
 Gap=     0.541 Goal=   None    Shift=    0.000
 RMSDP=1.06D-06 MaxDP=2.08D-05 DE=-5.01D-08 OVMax= 3.06D-05

 Cycle   8  Pass 1  IDiag  1:
 E= -76.0371157880965     Delta-E=       -0.000000001998 Rises=F Damp=F
 DIIS: error= 9.30D-07 at cycle   8 NSaved=   8.
 NSaved= 8 IEnMin= 8 EnMin= -76.0371157880965     IErMin= 8 ErrMin= 9.30D-07
 ErrMax= 9.30D-07  0.00D+00 EMaxC= 1.00D-01 BMatC= 2.10D-11 BMatP= 7.46D-10
 IDIUse=1 WtCom= 1.00D+00 WtEn= 0.00D+00
 Coeff-Com: -0.243D-04 0.129D-03 0.112D-02-0.571D-02 0.276D-02 0.731D-01
 Coeff-Com: -0.391D+00 0.132D+01
 Coeff:     -0.243D-04 0.129D-03 0.112D-02-0.571D-02 0.276D-02 0.731D-01
 Coeff:     -0.391D+00 0.132D+01
 Gap=     0.541 Goal=   None    Shift=    0.000
 RMSDP=2.27D-07 MaxDP=3.09D-06 DE=-2.00D-09 OVMax= 4.44D-06

 Cycle   9  Pass 1  IDiag  1:
 E= -76.0371157881494     Delta-E=       -0.000000000053 Rises=F Damp=F
 DIIS: error= 1.24D-07 at cycle   9 NSaved=   9.
 NSaved= 9 IEnMin= 9 EnMin= -76.0371157881494     IErMin= 9 ErrMin= 1.24D-07
 ErrMax= 1.24D-07  0.00D+00 EMaxC= 1.00D-01 BMatC= 4.67D-13 BMatP= 2.10D-11
 IDIUse=1 WtCom= 1.00D+00 WtEn= 0.00D+00
 Coeff-Com: -0.304D-05 0.136D-04 0.101D-03-0.280D-03-0.898D-03 0.694D-02
 Coeff-Com: -0.687D-02-0.124D+00 0.112D+01
 Coeff:     -0.304D-05 0.136D-04 0.101D-03-0.280D-03-0.898D-03 0.694D-02
 Coeff:     -0.687D-02-0.124D+00 0.112D+01
 Gap=     0.541 Goal=   None    Shift=    0.000
 RMSDP=3.24D-08 MaxDP=3.38D-07 DE=-5.29D-11 OVMax= 5.55D-07

 Cycle  10  Pass 1  IDiag  1:
 E= -76.0371157881505     Delta-E=       -0.000000000001 Rises=F Damp=F
 DIIS: error= 3.28D-08 at cycle  10 NSaved=  10.
 NSaved=10 IEnMin=10 EnMin= -76.0371157881505     IErMin=10 ErrMin= 3.28D-08
 ErrMax= 3.28D-08  0.00D+00 EMaxC= 1.00D-01 BMatC= 3.22D-14 BMatP= 4.67D-13
 IDIUse=1 WtCom= 1.00D+00 WtEn= 0.00D+00
 Coeff-Com:  0.173D-05-0.867D-05-0.713D-04 0.308D-03 0.161D-03-0.508D-02
 Coeff-Com:  0.205D-01-0.381D-01-0.280D+00 0.130D+01
 Coeff:      0.173D-05-0.867D-05-0.713D-04 0.308D-03 0.161D-03-0.508D-02
 Coeff:      0.205D-01-0.381D-01-0.280D+00 0.130D+01
 Gap=     0.541 Goal=   None    Shift=    0.000
 RMSDP=9.64D-09 MaxDP=9.77D-08 DE=-1.14D-12 OVMax= 1.98D-07

 SCF Done:  E(RHF) =  -76.0371157882     A.U. after   10 cycles
            NFock= 10  Conv=0.96D-08     -V/T= 2.0028
 KE= 7.582436209474D+01 PE=-1.983579014498D+02 EE= 3.755498953756D+01
 Leave Link  502 at Mon Feb 20 10:17:11 2023, MaxMem=   754974720 cpu:               4.3 elap:               1.6
 (Enter /opt/cluster/programs/g16-c.01/g16/l601.exe)
 Copying SCF densities to generalized density rwf, IOpCl= 0 IROHF=0.

 **********************************************************************

            Population analysis using the SCF Density.

 **********************************************************************

 Orbital symmetries:
       Occupied  (A') (A') (A') (A') (A")
       Virtual   (A') (A') (A') (A") (A') (A') (A') (A') (A") (A')
                 (A") (A') (A') (A') (A') (A') (A") (A') (A") (A')
                 (A') (A") (A') (A') (A") (A") (A') (A') (A') (A')
                 (A') (A") (A') (A") (A') (A')
 The electronic state is 1-A'.
 Alpha  occ. eigenvalues --  -20.57963  -1.34114  -0.71220  -0.57267  -0.50613
 Alpha virt. eigenvalues --    0.03521   0.05743   0.17498   0.19753   0.21913
 Alpha virt. eigenvalues --    0.23097   0.28535   0.32271   0.38135   0.40809
 Alpha virt. eigenvalues --    0.43606   0.53122   0.63888   0.65775   0.81075
 Alpha virt. eigenvalues --    0.90956   1.09931   1.11021   1.14658   1.32028
 Alpha virt. eigenvalues --    1.46147   1.47968   1.57612   1.97386   2.00622
 Alpha virt. eigenvalues --    2.08185   2.38844   2.41077   2.57967   2.71867
 Alpha virt. eigenvalues --    2.92539   3.66790   3.68102   3.69973   4.01357
 Alpha virt. eigenvalues --    4.25013
          Condensed to atoms (all electrons):
               1          2          3
     1  O    7.707343   0.320867   0.336769
     2  H    0.320867   0.499691  -0.031242
     3  H    0.336769  -0.031242   0.540177
 Mulliken charges:
               1
     1  O   -0.364979
     2  H    0.210684
     3  H    0.154296
 Sum of Mulliken charges =  -0.00000
 Mulliken charges with hydrogens summed into heavy atoms:
               1
     1  O   -0.000000
 Electronic spatial extent (au):  <R**2>=             19.8984
 Charge=             -0.0000 electrons
 Dipole moment (field-independent basis, Debye):
    X=             -0.0205    Y=             -1.9535    Z=             -0.0000  Tot=              1.9536
 Quadrupole moment (field-independent basis, Debye-Ang):
   XX=             -4.0396   YY=             -6.3934   ZZ=             -7.6602
   XY=             -0.1564   XZ=             -0.0000   YZ=              0.0000
 Traceless Quadrupole moment (field-independent basis, Debye-Ang):
   XX=              1.9915   YY=             -0.3623   ZZ=             -1.6292
   XY=             -0.1564   XZ=             -0.0000   YZ=              0.0000
 Octapole moment (field-independent basis, Debye-Ang**2):
  XXX=             -0.0664  YYY=             -1.1066  ZZZ=             -0.0000  XYY=              0.1066
  XXY=             -1.4804  XXZ=             -0.0000  XZZ=             -0.0309  YZZ=             -0.2667
  YYZ=             -0.0000  XYZ=              0.0000
 Hexadecapole moment (field-independent basis, Debye-Ang**3):
 XXXX=             -6.0414 YYYY=             -7.5260 ZZZZ=             -6.9349 XXXY=             -0.0170
 XXXZ=              0.0000 YYYX=             -0.0004 YYYZ=             -0.0000 ZZZX=              0.0000
 ZZZY=             -0.0000 XXYY=             -1.9602 XXZZ=             -2.5547 YYZZ=             -2.4602
 XXYZ=              0.0000 YYXZ=              0.0000 ZZXY=              0.0379
 N-N= 8.941434029299D+00 E-N=-1.983579011702D+02  KE= 7.582436209474D+01
 Symmetry A'   KE= 7.138081113296D+01
 Symmetry A"   KE= 4.443550961786D+00
 No NMR shielding tensors so no spin-rotation constants.
 Leave Link  601 at Mon Feb 20 10:17:11 2023, MaxMem=   754974720 cpu:               1.0 elap:               0.5
 (Enter /opt/cluster/programs/g16-c.01/g16/l9999.exe)
 Unable to Open any file for archive entry.
 1\1\GINC-NODE105\SP\RHF\Aug-CC-pVDZ\H2O1\BOITTIER\20-Feb-2023\0\\#P HF
 /aug-cc-pVDZ scf(maxcycle=200)\\Gaussian input\\0,1\O,0,0.,0.11751,0.\
 H,0,0.7973622306,-0.5007896629,0.\H,0,-0.7972967856,-0.4154054114,0.\\
 Version=ES64L-G16RevC.01\State=1-A'\HF=-76.0371158\RMSD=9.644e-09\Dipo
 le=-0.0080371,-0.7685782,0.\Quadrupole=1.4806293,-0.2693847,-1.2112447
 ,-0.1161775,0.,0.\PG=CS [SG(H2O1)]\\@
 The archive entry for this job was punched.


 ... A MOLECULAR SYSTEM ... (PASSES) ... FROM ONE STATE OF EQUILIBRIUM 
 TO ANOTHER ... BY MEANS OF ALL POSSIBLE INTERMEDIATE PATHS, 
 BUT THE PATH MOST ECONOMICAL OF ENERGY WILL BE THE MORE OFTEN TRAVELED.

                      -- HENRY EYRING, 1945
 Job cpu time:       0 days  0 hours  0 minutes 10.4 seconds.
 Elapsed time:       0 days  0 hours  0 minutes  4.4 seconds.
 File lengths (MBytes):  RWF=      6 Int=      0 D2E=      0 Chk=      1 Scr=      1
 Normal termination of Gaussian 16 at Mon Feb 20 10:17:11 2023.
