 Entering Gaussian System, Link 0=/opt/cluster/programs/g16-c.01/g16/g16
 Input=/scratch/boittier/jobs/tmp.7311898/gaussian_70_water_hf_adz2.com
 Output=/scratch/boittier/jobs/tmp.7311898/gaussian_70_water_hf_adz2.out
 Initial command:
 /opt/cluster/programs/g16-c.01/g16/l1.exe "/scratch/boittier/jobs/tmp.7311898/Gau-190078.inp" -scrdir="/scratch/boittier/jobs/tmp.7311898/"
 Entering Link 1 = /opt/cluster/programs/g16-c.01/g16/l1.exe PID=    190079.
  
 Copyright (c) 1988-2019, Gaussian, Inc.  All Rights Reserved.
  
 This is part of the Gaussian(R) 16 program.  It is based on
 the Gaussian(R) 09 system (copyright 2009, Gaussian, Inc.),
 the Gaussian(R) 03 system (copyright 2003, Gaussian, Inc.),
 the Gaussian(R) 98 system (copyright 1998, Gaussian, Inc.),
 the Gaussian(R) 94 system (copyright 1995, Gaussian, Inc.),
 the Gaussian 92(TM) system (copyright 1992, Gaussian, Inc.),
 the Gaussian 90(TM) system (copyright 1990, Gaussian, Inc.),
 the Gaussian 88(TM) system (copyright 1988, Gaussian, Inc.),
 the Gaussian 86(TM) system (copyright 1986, Carnegie Mellon
 University), and the Gaussian 82(TM) system (copyright 1983,
 Carnegie Mellon University). Gaussian is a federally registered
 trademark of Gaussian, Inc.
  
 This software contains proprietary and confidential information,
 including trade secrets, belonging to Gaussian, Inc.
  
 This software is provided under written license and may be
 used, copied, transmitted, or stored only in accord with that
 written license.
  
 The following legend is applicable only to US Government
 contracts under FAR:
  
                    RESTRICTED RIGHTS LEGEND
  
 Use, reproduction and disclosure by the US Government is
 subject to restrictions as set forth in subparagraphs (a)
 and (c) of the Commercial Computer Software - Restricted
 Rights clause in FAR 52.227-19.
  
 Gaussian, Inc.
 340 Quinnipiac St., Bldg. 40, Wallingford CT 06492
  
  
 ---------------------------------------------------------------
 Warning -- This program may not be used in any manner that
 competes with the business of Gaussian, Inc. or will provide
 assistance to any competitor of Gaussian, Inc.  The licensee
 of this program is prohibited from giving any competitor of
 Gaussian, Inc. access to this program.  By using this program,
 the user acknowledges that Gaussian, Inc. is engaged in the
 business of creating and licensing software in the field of
 computational chemistry and represents and warrants to the
 licensee that it is not a competitor of Gaussian, Inc. and that
 it will not use this program in any manner prohibited above.
 ---------------------------------------------------------------
  

 Cite this work as:
 Gaussian 16, Revision C.01,
 M. J. Frisch, G. W. Trucks, H. B. Schlegel, G. E. Scuseria, 
 M. A. Robb, J. R. Cheeseman, G. Scalmani, V. Barone, 
 G. A. Petersson, H. Nakatsuji, X. Li, M. Caricato, A. V. Marenich, 
 J. Bloino, B. G. Janesko, R. Gomperts, B. Mennucci, H. P. Hratchian, 
 J. V. Ortiz, A. F. Izmaylov, J. L. Sonnenberg, D. Williams-Young, 
 F. Ding, F. Lipparini, F. Egidi, J. Goings, B. Peng, A. Petrone, 
 T. Henderson, D. Ranasinghe, V. G. Zakrzewski, J. Gao, N. Rega, 
 G. Zheng, W. Liang, M. Hada, M. Ehara, K. Toyota, R. Fukuda, 
 J. Hasegawa, M. Ishida, T. Nakajima, Y. Honda, O. Kitao, H. Nakai, 
 T. Vreven, K. Throssell, J. A. Montgomery, Jr., J. E. Peralta, 
 F. Ogliaro, M. J. Bearpark, J. J. Heyd, E. N. Brothers, K. N. Kudin, 
 V. N. Staroverov, T. A. Keith, R. Kobayashi, J. Normand, 
 K. Raghavachari, A. P. Rendell, J. C. Burant, S. S. Iyengar, 
 J. Tomasi, M. Cossi, J. M. Millam, M. Klene, C. Adamo, R. Cammi, 
 J. W. Ochterski, R. L. Martin, K. Morokuma, O. Farkas, 
 J. B. Foresman, and D. J. Fox, Gaussian, Inc., Wallingford CT, 2019.
 
 ******************************************
 Gaussian 16:  ES64L-G16RevC.01  3-Jul-2019
                20-Feb-2023 
 ******************************************
 %nproc=4
 Will use up to    4 processors via shared memory.
 %mem=5760MB
 %chk=gaussian_70_water_hf_adz2.chk
 -----------------------------------
 #P HF/aug-cc-pVDZ scf(maxcycle=200)
 -----------------------------------
 1/38=1,172=1/1;
 2/12=2,17=6,18=5,40=1/2;
 3/5=16,7=10,11=9,25=1,30=1/1,2,3;
 4//1;
 5/5=2,7=200,38=5/2;
 6/7=2,8=2,9=2,10=2,28=1/1;
 99/5=1,9=1/99;
 Leave Link    1 at Mon Feb 20 10:15:45 2023, MaxMem=   754974720 cpu:               0.1 elap:               0.0
 (Enter /opt/cluster/programs/g16-c.01/g16/l101.exe)
 --------------
 Gaussian input
 --------------
 Symbolic Z-matrix:
 Charge =  0 Multiplicity = 1
 O                     0.        0.11751   0. 
 H                     0.75785  -0.47015   0. 
 H                    -0.71865  -0.43911   0. 
 
 ITRead=  0  0  0
 MicOpt= -1 -1 -1
 NAtoms=      3 NQM=        3 NQMF=       0 NMMI=      0 NMMIF=      0
                NMic=       0 NMicF=      0.
                    Isotopes and Nuclear Properties:
 (Nuclear quadrupole moments (NQMom) in fm**2, nuclear magnetic moments (NMagM)
  in nuclear magnetons)

  Atom         1           2           3
 IAtWgt=          16           1           1
 AtmWgt=  15.9949146   1.0078250   1.0078250
 NucSpn=           0           1           1
 AtZEff=  -0.0000000  -0.0000000  -0.0000000
 NQMom=    0.0000000   0.0000000   0.0000000
 NMagM=    0.0000000   2.7928460   2.7928460
 AtZNuc=   8.0000000   1.0000000   1.0000000
 Leave Link  101 at Mon Feb 20 10:15:46 2023, MaxMem=   754974720 cpu:               0.8 elap:               0.2
 (Enter /opt/cluster/programs/g16-c.01/g16/l202.exe)
                          Input orientation:                          
 ---------------------------------------------------------------------
 Center     Atomic      Atomic             Coordinates (Angstroms)
 Number     Number       Type             X           Y           Z
 ---------------------------------------------------------------------
      1          8           0        0.000000    0.117510    0.000000
      2          1           0        0.757850   -0.470150    0.000000
      3          1           0       -0.718651   -0.439107    0.000000
 ---------------------------------------------------------------------
                    Distance matrix (angstroms):
                    1          2          3
     1  O    0.000000
     2  H    0.959000   0.000000
     3  H    0.909000   1.476827   0.000000
 Stoichiometry    H2O
 Framework group  CS[SG(H2O)]
 Deg. of freedom     3
 Full point group                 CS      NOp   2
 Largest Abelian subgroup         CS      NOp   2
 Largest concise Abelian subgroup C1      NOp   1
                         Standard orientation:                         
 ---------------------------------------------------------------------
 Center     Atomic      Atomic             Coordinates (Angstroms)
 Number     Number       Type             X           Y           Z
 ---------------------------------------------------------------------
      1          8           0        0.000000    0.114495    0.000000
      2          1           0        0.737286   -0.498767   -0.000000
      3          1           0       -0.737286   -0.417192    0.000000
 ---------------------------------------------------------------------
 Rotational constants (GHZ):         867.0936307         458.2470533         299.8045001
 Leave Link  202 at Mon Feb 20 10:15:46 2023, MaxMem=   754974720 cpu:               0.0 elap:               0.0
 (Enter /opt/cluster/programs/g16-c.01/g16/l301.exe)
 Standard basis: Aug-CC-pVDZ (5D, 7F)
 Ernie: Thresh=  0.10000D-02 Tol=  0.10000D-05 Strict=F.
 Ernie:  2 primitive shells out of 39 were deleted.
 There are    32 symmetry adapted cartesian basis functions of A'  symmetry.
 There are    11 symmetry adapted cartesian basis functions of A"  symmetry.
 There are    30 symmetry adapted basis functions of A'  symmetry.
 There are    11 symmetry adapted basis functions of A"  symmetry.
    41 basis functions,    65 primitive gaussians,    43 cartesian basis functions
     5 alpha electrons        5 beta electrons
       nuclear repulsion energy         9.4299540837 Hartrees.
 IExCor=    0 DFT=F Ex=HF Corr=None ExCW=0 ScaHFX=  1.000000
 ScaDFX=  1.000000  1.000000  1.000000  1.000000 ScalE2=  1.000000  1.000000
 IRadAn=      5 IRanWt=     -1 IRanGd=            0 ICorTp=0 IEmpDi=  4
 NAtoms=    3 NActive=    3 NUniq=    3 SFac= 1.00D+00 NAtFMM=   60 NAOKFM=F Big=F
 Integral buffers will be    131072 words long.
 Raffenetti 1 integral format.
 Two-electron integral symmetry is turned on.
 Leave Link  301 at Mon Feb 20 10:15:46 2023, MaxMem=   754974720 cpu:               0.2 elap:               0.0
 (Enter /opt/cluster/programs/g16-c.01/g16/l302.exe)
 NPDir=0 NMtPBC=     1 NCelOv=     1 NCel=       1 NClECP=     1 NCelD=      1
         NCelK=      1 NCelE2=     1 NClLst=     1 CellRange=     0.0.
 One-electron integrals computed using PRISM.
 One-electron integral symmetry used in STVInt
 NBasis=    41 RedAO= T EigKep=  2.38D-03  NBF=    30    11
 NBsUse=    41 1.00D-06 EigRej= -1.00D+00 NBFU=    30    11
 Leave Link  302 at Mon Feb 20 10:15:46 2023, MaxMem=   754974720 cpu:               0.4 elap:               0.1
 (Enter /opt/cluster/programs/g16-c.01/g16/l303.exe)
 DipDrv:  MaxL=1.
 Leave Link  303 at Mon Feb 20 10:15:46 2023, MaxMem=   754974720 cpu:               0.1 elap:               0.0
 (Enter /opt/cluster/programs/g16-c.01/g16/l401.exe)
 ExpMin= 2.97D-02 ExpMax= 1.17D+04 ExpMxC= 4.01D+02 IAcc=3 IRadAn=         5 AccDes= 0.00D+00
 Harris functional with IExCor=  205 and IRadAn=       5 diagonalized for initial guess.
 HarFok:  IExCor=  205 AccDes= 0.00D+00 IRadAn=         5 IDoV= 1 UseB2=F ITyADJ=14
 ICtDFT=  3500011 ScaDFX=  1.000000  1.000000  1.000000  1.000000
 FoFCou: FMM=F IPFlag=           0 FMFlag=      100000 FMFlg1=           0
         NFxFlg=           0 DoJE=T BraDBF=F KetDBF=T FulRan=T
         wScrn=  0.000000 ICntrl=       500 IOpCl=  0 I1Cent=   200000004 NGrid=           0
         NMat0=    1 NMatS0=      1 NMatT0=    0 NMatD0=    1 NMtDS0=    0 NMtDT0=    0
 Petite list used in FoFCou.
 Harris En= -76.1241436366485    
 JPrj=0 DoOrth=F DoCkMO=F.
 Initial guess orbital symmetries:
       Occupied  (A') (A') (A') (A') (A")
       Virtual   (A') (A') (A') (A") (A') (A') (A') (A') (A") (A')
                 (A") (A') (A') (A') (A') (A') (A") (A') (A") (A')
                 (A") (A') (A') (A') (A") (A") (A') (A') (A') (A')
                 (A') (A") (A') (A") (A') (A')
 The electronic state of the initial guess is 1-A'.
 Leave Link  401 at Mon Feb 20 10:15:46 2023, MaxMem=   754974720 cpu:               0.6 elap:               0.1
 (Enter /opt/cluster/programs/g16-c.01/g16/l502.exe)
 Keep R1 ints in memory in symmetry-blocked form, NReq=1210696.
 FoFCou: FMM=F IPFlag=           0 FMFlag=           0 FMFlg1=           0
         NFxFlg=           0 DoJE=F BraDBF=F KetDBF=F FulRan=T
         wScrn=  0.000000 ICntrl=       600 IOpCl=  0 I1Cent=           0 NGrid=           0
         NMat0=    1 NMatS0=    861 NMatT0=    0 NMatD0=    1 NMtDS0=    0 NMtDT0=    0
 Petite list used in FoFCou.
 Closed shell SCF:
 Using DIIS extrapolation, IDIIS=  1040.
 NGot=   754974720 LenX=   754771907 LenY=   754769617
 Requested convergence on RMS density matrix=1.00D-08 within 200 cycles.
 Requested convergence on MAX density matrix=1.00D-06.
 Requested convergence on             energy=1.00D-06.
 No special actions if energy rises.

 Cycle   1  Pass 1  IDiag  1:
 E= -75.9608458671479    
 DIIS: error= 5.21D-02 at cycle   1 NSaved=   1.
 NSaved= 1 IEnMin= 1 EnMin= -75.9608458671479     IErMin= 1 ErrMin= 5.21D-02
 ErrMax= 5.21D-02  0.00D+00 EMaxC= 1.00D-01 BMatC= 1.22D-01 BMatP= 1.22D-01
 IDIUse=3 WtCom= 4.79D-01 WtEn= 5.21D-01
 Coeff-Com:  0.100D+01
 Coeff-En:   0.100D+01
 Coeff:      0.100D+01
 Gap=     0.457 Goal=   None    Shift=    0.000
 GapD=    0.457 DampG=2.000 DampE=0.500 DampFc=1.0000 IDamp=-1.
 RMSDP=6.42D-03 MaxDP=1.20D-01              OVMax= 1.19D-01

 Cycle   2  Pass 1  IDiag  1:
 E= -76.0083733234032     Delta-E=       -0.047527456255 Rises=F Damp=F
 DIIS: error= 3.93D-02 at cycle   2 NSaved=   2.
 NSaved= 2 IEnMin= 2 EnMin= -76.0083733234032     IErMin= 2 ErrMin= 3.93D-02
 ErrMax= 3.93D-02  0.00D+00 EMaxC= 1.00D-01 BMatC= 4.53D-02 BMatP= 1.22D-01
 IDIUse=3 WtCom= 6.07D-01 WtEn= 3.93D-01
 Coeff-Com:  0.368D+00 0.632D+00
 Coeff-En:   0.192D+00 0.808D+00
 Coeff:      0.299D+00 0.701D+00
 Gap=     0.566 Goal=   None    Shift=    0.000
 RMSDP=2.94D-03 MaxDP=5.45D-02 DE=-4.75D-02 OVMax= 5.85D-02

 Cycle   3  Pass 1  IDiag  1:
 E= -76.0391302269674     Delta-E=       -0.030756903564 Rises=F Damp=F
 DIIS: error= 4.90D-03 at cycle   3 NSaved=   3.
 NSaved= 3 IEnMin= 3 EnMin= -76.0391302269674     IErMin= 3 ErrMin= 4.90D-03
 ErrMax= 4.90D-03  0.00D+00 EMaxC= 1.00D-01 BMatC= 1.20D-03 BMatP= 4.53D-02
 IDIUse=3 WtCom= 9.51D-01 WtEn= 4.90D-02
 Coeff-Com: -0.371D-01 0.958D-01 0.941D+00
 Coeff-En:   0.000D+00 0.000D+00 0.100D+01
 Coeff:     -0.353D-01 0.911D-01 0.944D+00
 Gap=     0.546 Goal=   None    Shift=    0.000
 RMSDP=4.77D-04 MaxDP=8.13D-03 DE=-3.08D-02 OVMax= 9.05D-03

 Cycle   4  Pass 1  IDiag  1:
 E= -76.0400187706691     Delta-E=       -0.000888543702 Rises=F Damp=F
 DIIS: error= 5.66D-04 at cycle   4 NSaved=   4.
 NSaved= 4 IEnMin= 4 EnMin= -76.0400187706691     IErMin= 4 ErrMin= 5.66D-04
 ErrMax= 5.66D-04  0.00D+00 EMaxC= 1.00D-01 BMatC= 6.34D-06 BMatP= 1.20D-03
 IDIUse=3 WtCom= 9.94D-01 WtEn= 5.66D-03
 Coeff-Com:  0.920D-02-0.441D-01-0.332D+00 0.137D+01
 Coeff-En:   0.000D+00 0.000D+00 0.000D+00 0.100D+01
 Coeff:      0.915D-02-0.438D-01-0.330D+00 0.136D+01
 Gap=     0.547 Goal=   None    Shift=    0.000
 RMSDP=1.04D-04 MaxDP=9.72D-04 DE=-8.89D-04 OVMax= 2.06D-03

 Cycle   5  Pass 1  IDiag  1:
 E= -76.0400338740964     Delta-E=       -0.000015103427 Rises=F Damp=F
 DIIS: error= 1.47D-04 at cycle   5 NSaved=   5.
 NSaved= 5 IEnMin= 5 EnMin= -76.0400338740964     IErMin= 5 ErrMin= 1.47D-04
 ErrMax= 1.47D-04  0.00D+00 EMaxC= 1.00D-01 BMatC= 2.38D-07 BMatP= 6.34D-06
 IDIUse=3 WtCom= 9.99D-01 WtEn= 1.47D-03
 Coeff-Com: -0.791D-03 0.619D-02 0.449D-01-0.339D+00 0.129D+01
 Coeff-En:   0.000D+00 0.000D+00 0.000D+00 0.000D+00 0.100D+01
 Coeff:     -0.790D-03 0.618D-02 0.448D-01-0.338D+00 0.129D+01
 Gap=     0.547 Goal=   None    Shift=    0.000
 RMSDP=2.29D-05 MaxDP=3.27D-04 DE=-1.51D-05 OVMax= 4.82D-04

 Cycle   6  Pass 1  IDiag  1:
 E= -76.0400345735828     Delta-E=       -0.000000699486 Rises=F Damp=F
 DIIS: error= 2.45D-05 at cycle   6 NSaved=   6.
 NSaved= 6 IEnMin= 6 EnMin= -76.0400345735828     IErMin= 6 ErrMin= 2.45D-05
 ErrMax= 2.45D-05  0.00D+00 EMaxC= 1.00D-01 BMatC= 7.87D-09 BMatP= 2.38D-07
 IDIUse=1 WtCom= 1.00D+00 WtEn= 0.00D+00
 Coeff-Com: -0.252D-03 0.946D-03 0.688D-02-0.818D-02-0.202D+00 0.120D+01
 Coeff:     -0.252D-03 0.946D-03 0.688D-02-0.818D-02-0.202D+00 0.120D+01
 Gap=     0.547 Goal=   None    Shift=    0.000
 RMSDP=3.45D-06 MaxDP=6.77D-05 DE=-6.99D-07 OVMax= 8.85D-05

 Cycle   7  Pass 1  IDiag  1:
 E= -76.0400345968779     Delta-E=       -0.000000023295 Rises=F Damp=F
 DIIS: error= 5.40D-06 at cycle   7 NSaved=   7.
 NSaved= 7 IEnMin= 7 EnMin= -76.0400345968779     IErMin= 7 ErrMin= 5.40D-06
 ErrMax= 5.40D-06  0.00D+00 EMaxC= 1.00D-01 BMatC= 4.43D-10 BMatP= 7.87D-09
 IDIUse=1 WtCom= 1.00D+00 WtEn= 0.00D+00
 Coeff-Com:  0.120D-03-0.639D-03-0.484D-02 0.236D-01-0.174D-01-0.314D+00
 Coeff-Com:  0.131D+01
 Coeff:      0.120D-03-0.639D-03-0.484D-02 0.236D-01-0.174D-01-0.314D+00
 Coeff:      0.131D+01
 Gap=     0.547 Goal=   None    Shift=    0.000
 RMSDP=7.62D-07 MaxDP=1.42D-05 DE=-2.33D-08 OVMax= 2.11D-05

 Cycle   8  Pass 1  IDiag  1:
 E= -76.0400345979914     Delta-E=       -0.000000001114 Rises=F Damp=F
 DIIS: error= 6.69D-07 at cycle   8 NSaved=   8.
 NSaved= 8 IEnMin= 8 EnMin= -76.0400345979914     IErMin= 8 ErrMin= 6.69D-07
 ErrMax= 6.69D-07  0.00D+00 EMaxC= 1.00D-01 BMatC= 1.16D-11 BMatP= 4.43D-10
 IDIUse=1 WtCom= 1.00D+00 WtEn= 0.00D+00
 Coeff-Com: -0.191D-04 0.115D-03 0.914D-03-0.554D-02 0.113D-01 0.398D-01
 Coeff-Com: -0.346D+00 0.130D+01
 Coeff:     -0.191D-04 0.115D-03 0.914D-03-0.554D-02 0.113D-01 0.398D-01
 Coeff:     -0.346D+00 0.130D+01
 Gap=     0.547 Goal=   None    Shift=    0.000
 RMSDP=1.68D-07 MaxDP=2.21D-06 DE=-1.11D-09 OVMax= 3.23D-06

 Cycle   9  Pass 1  IDiag  1:
 E= -76.0400345980206     Delta-E=       -0.000000000029 Rises=F Damp=F
 DIIS: error= 8.48D-08 at cycle   9 NSaved=   9.
 NSaved= 9 IEnMin= 9 EnMin= -76.0400345980206     IErMin= 9 ErrMin= 8.48D-08
 ErrMax= 8.48D-08  0.00D+00 EMaxC= 1.00D-01 BMatC= 2.10D-13 BMatP= 1.16D-11
 IDIUse=1 WtCom= 1.00D+00 WtEn= 0.00D+00
 Coeff-Com: -0.166D-05 0.775D-05 0.495D-04-0.952D-04-0.722D-03 0.452D-02
 Coeff-Com:  0.286D-02-0.135D+00 0.113D+01
 Coeff:     -0.166D-05 0.775D-05 0.495D-04-0.952D-04-0.722D-03 0.452D-02
 Coeff:      0.286D-02-0.135D+00 0.113D+01
 Gap=     0.547 Goal=   None    Shift=    0.000
 RMSDP=2.31D-08 MaxDP=2.47D-07 DE=-2.92D-11 OVMax= 3.44D-07

 Cycle  10  Pass 1  IDiag  1:
 E= -76.0400345980212     Delta-E=       -0.000000000001 Rises=F Damp=F
 DIIS: error= 2.34D-08 at cycle  10 NSaved=  10.
 NSaved=10 IEnMin=10 EnMin= -76.0400345980212     IErMin=10 ErrMin= 2.34D-08
 ErrMax= 2.34D-08  0.00D+00 EMaxC= 1.00D-01 BMatC= 1.24D-14 BMatP= 2.10D-13
 IDIUse=1 WtCom= 1.00D+00 WtEn= 0.00D+00
 Coeff-Com:  0.976D-06-0.549D-05-0.408D-04 0.207D-03-0.200D-03-0.243D-02
 Coeff-Com:  0.123D-01-0.226D-01-0.259D+00 0.127D+01
 Coeff:      0.976D-06-0.549D-05-0.408D-04 0.207D-03-0.200D-03-0.243D-02
 Coeff:      0.123D-01-0.226D-01-0.259D+00 0.127D+01
 Gap=     0.547 Goal=   None    Shift=    0.000
 RMSDP=5.93D-09 MaxDP=6.16D-08 DE=-5.26D-13 OVMax= 9.91D-08

 SCF Done:  E(RHF) =  -76.0400345980     A.U. after   10 cycles
            NFock= 10  Conv=0.59D-08     -V/T= 2.0001
 KE= 7.602925721943D+01 PE=-1.994158110286D+02 EE= 3.791656512743D+01
 Leave Link  502 at Mon Feb 20 10:15:46 2023, MaxMem=   754974720 cpu:               0.6 elap:               0.1
 (Enter /opt/cluster/programs/g16-c.01/g16/l601.exe)
 Copying SCF densities to generalized density rwf, IOpCl= 0 IROHF=0.

 **********************************************************************

            Population analysis using the SCF Density.

 **********************************************************************

 Orbital symmetries:
       Occupied  (A') (A') (A') (A') (A")
       Virtual   (A') (A') (A') (A") (A') (A') (A') (A') (A") (A')
                 (A") (A') (A') (A') (A') (A') (A") (A') (A") (A')
                 (A') (A") (A') (A') (A") (A") (A') (A') (A') (A')
                 (A') (A") (A') (A") (A') (A')
 The electronic state is 1-A'.
 Alpha  occ. eigenvalues --  -20.57314  -1.36975  -0.73229  -0.59002  -0.51152
 Alpha virt. eigenvalues --    0.03578   0.05805   0.17328   0.19547   0.22389
 Alpha virt. eigenvalues --    0.23073   0.29674   0.33547   0.38733   0.40767
 Alpha virt. eigenvalues --    0.43763   0.54278   0.65092   0.66115   0.82403
 Alpha virt. eigenvalues --    0.93981   1.09824   1.11408   1.15090   1.31679
 Alpha virt. eigenvalues --    1.47142   1.49033   1.59622   2.02252   2.02330
 Alpha virt. eigenvalues --    2.12867   2.37899   2.51051   2.67124   2.74934
 Alpha virt. eigenvalues --    2.97744   3.67360   3.69769   3.71013   4.05204
 Alpha virt. eigenvalues --    4.36973
          Condensed to atoms (all electrons):
               1          2          3
     1  O    7.551991   0.339323   0.353124
     2  H    0.339323   0.554571  -0.044360
     3  H    0.353124  -0.044360   0.597265
 Mulliken charges:
               1
     1  O   -0.244438
     2  H    0.150466
     3  H    0.093971
 Sum of Mulliken charges =   0.00000
 Mulliken charges with hydrogens summed into heavy atoms:
               1
     1  O    0.000000
 Electronic spatial extent (au):  <R**2>=             19.2330
 Charge=              0.0000 electrons
 Dipole moment (field-independent basis, Debye):
    X=             -0.0237    Y=             -1.9814    Z=             -0.0000  Tot=              1.9815
 Quadrupole moment (field-independent basis, Debye-Ang):
   XX=             -4.3403   YY=             -6.2401   ZZ=             -7.5320
   XY=             -0.1369   XZ=             -0.0000   YZ=              0.0000
 Traceless Quadrupole moment (field-independent basis, Debye-Ang):
   XX=              1.6972   YY=             -0.2026   ZZ=             -1.4946
   XY=             -0.1369   XZ=             -0.0000   YZ=              0.0000
 Octapole moment (field-independent basis, Debye-Ang**2):
  XXX=             -0.0694  YYY=             -1.2275  ZZZ=             -0.0000  XYY=              0.0896
  XXY=             -1.3149  XXZ=             -0.0000  XZZ=             -0.0311  YZZ=             -0.3107
  YYZ=             -0.0000  XYZ=              0.0000
 Hexadecapole moment (field-independent basis, Debye-Ang**3):
 XXXX=             -5.8581 YYYY=             -7.1462 ZZZZ=             -6.7345 XXXY=             -0.0029
 XXXZ=              0.0000 YYYX=             -0.0023 YYYZ=             -0.0000 ZZZX=              0.0000
 ZZZY=             -0.0000 XXYY=             -1.8732 XXZZ=             -2.3859 YYZZ=             -2.3619
 XXYZ=              0.0000 YYXZ=              0.0000 ZZXY=              0.0328
 N-N= 9.429954083685D+00 E-N=-1.994158108743D+02  KE= 7.602925721943D+01
 Symmetry A'   KE= 7.158563740261D+01
 Symmetry A"   KE= 4.443619816824D+00
 No NMR shielding tensors so no spin-rotation constants.
 Leave Link  601 at Mon Feb 20 10:15:46 2023, MaxMem=   754974720 cpu:               0.3 elap:               0.1
 (Enter /opt/cluster/programs/g16-c.01/g16/l9999.exe)
 Unable to Open any file for archive entry.
 1\1\GINC-NODE102\SP\RHF\Aug-CC-pVDZ\H2O1\BOITTIER\20-Feb-2023\0\\#P HF
 /aug-cc-pVDZ scf(maxcycle=200)\\Gaussian input\\0,1\O,0,0.,0.11751,0.\
 H,0,0.7578497316,-0.4701504329,0.\H,0,-0.7186505762,-0.4391068785,0.\\
 Version=ES64L-G16RevC.01\State=1-A'\HF=-76.0400346\RMSD=5.927e-09\Dipo
 le=0.01738,-0.7793873,0.\Quadrupole=1.2671329,-0.1559641,-1.1111689,-0
 .0531775,0.,0.\PG=CS [SG(H2O1)]\\@
 The archive entry for this job was punched.


 THERE IS NOTHING NOBLE IN BEING SUPERIOR TO SOME OTHER MAN.
 TRUE NOBILITY IS BEING SUPERIOR TO YOUR FORMER SELF.

                                                   -- HINDU PROVERB
 Job cpu time:       0 days  0 hours  0 minutes  3.3 seconds.
 Elapsed time:       0 days  0 hours  0 minutes  0.8 seconds.
 File lengths (MBytes):  RWF=      6 Int=      0 D2E=      0 Chk=      1 Scr=      1
 Normal termination of Gaussian 16 at Mon Feb 20 10:15:46 2023.
