 Entering Gaussian System, Link 0=/opt/cluster/programs/g16-c.01/g16/g16
 Input=/scratch/boittier/jobs/tmp.7262038/gaussian_96_water_wb97_ptz.com
 Output=/scratch/boittier/jobs/tmp.7262038/gaussian_96_water_wb97_ptz.out
 Initial command:
 /opt/cluster/programs/g16-c.01/g16/l1.exe "/scratch/boittier/jobs/tmp.7262038/Gau-100772.inp" -scrdir="/scratch/boittier/jobs/tmp.7262038/"
 Entering Link 1 = /opt/cluster/programs/g16-c.01/g16/l1.exe PID=    100773.
  
 Copyright (c) 1988-2019, Gaussian, Inc.  All Rights Reserved.
  
 This is part of the Gaussian(R) 16 program.  It is based on
 the Gaussian(R) 09 system (copyright 2009, Gaussian, Inc.),
 the Gaussian(R) 03 system (copyright 2003, Gaussian, Inc.),
 the Gaussian(R) 98 system (copyright 1998, Gaussian, Inc.),
 the Gaussian(R) 94 system (copyright 1995, Gaussian, Inc.),
 the Gaussian 92(TM) system (copyright 1992, Gaussian, Inc.),
 the Gaussian 90(TM) system (copyright 1990, Gaussian, Inc.),
 the Gaussian 88(TM) system (copyright 1988, Gaussian, Inc.),
 the Gaussian 86(TM) system (copyright 1986, Carnegie Mellon
 University), and the Gaussian 82(TM) system (copyright 1983,
 Carnegie Mellon University). Gaussian is a federally registered
 trademark of Gaussian, Inc.
  
 This software contains proprietary and confidential information,
 including trade secrets, belonging to Gaussian, Inc.
  
 This software is provided under written license and may be
 used, copied, transmitted, or stored only in accord with that
 written license.
  
 The following legend is applicable only to US Government
 contracts under FAR:
  
                    RESTRICTED RIGHTS LEGEND
  
 Use, reproduction and disclosure by the US Government is
 subject to restrictions as set forth in subparagraphs (a)
 and (c) of the Commercial Computer Software - Restricted
 Rights clause in FAR 52.227-19.
  
 Gaussian, Inc.
 340 Quinnipiac St., Bldg. 40, Wallingford CT 06492
  
  
 ---------------------------------------------------------------
 Warning -- This program may not be used in any manner that
 competes with the business of Gaussian, Inc. or will provide
 assistance to any competitor of Gaussian, Inc.  The licensee
 of this program is prohibited from giving any competitor of
 Gaussian, Inc. access to this program.  By using this program,
 the user acknowledges that Gaussian, Inc. is engaged in the
 business of creating and licensing software in the field of
 computational chemistry and represents and warrants to the
 licensee that it is not a competitor of Gaussian, Inc. and that
 it will not use this program in any manner prohibited above.
 ---------------------------------------------------------------
  

 Cite this work as:
 Gaussian 16, Revision C.01,
 M. J. Frisch, G. W. Trucks, H. B. Schlegel, G. E. Scuseria, 
 M. A. Robb, J. R. Cheeseman, G. Scalmani, V. Barone, 
 G. A. Petersson, H. Nakatsuji, X. Li, M. Caricato, A. V. Marenich, 
 J. Bloino, B. G. Janesko, R. Gomperts, B. Mennucci, H. P. Hratchian, 
 J. V. Ortiz, A. F. Izmaylov, J. L. Sonnenberg, D. Williams-Young, 
 F. Ding, F. Lipparini, F. Egidi, J. Goings, B. Peng, A. Petrone, 
 T. Henderson, D. Ranasinghe, V. G. Zakrzewski, J. Gao, N. Rega, 
 G. Zheng, W. Liang, M. Hada, M. Ehara, K. Toyota, R. Fukuda, 
 J. Hasegawa, M. Ishida, T. Nakajima, Y. Honda, O. Kitao, H. Nakai, 
 T. Vreven, K. Throssell, J. A. Montgomery, Jr., J. E. Peralta, 
 F. Ogliaro, M. J. Bearpark, J. J. Heyd, E. N. Brothers, K. N. Kudin, 
 V. N. Staroverov, T. A. Keith, R. Kobayashi, J. Normand, 
 K. Raghavachari, A. P. Rendell, J. C. Burant, S. S. Iyengar, 
 J. Tomasi, M. Cossi, J. M. Millam, M. Klene, C. Adamo, R. Cammi, 
 J. W. Ochterski, R. L. Martin, K. Morokuma, O. Farkas, 
 J. B. Foresman, and D. J. Fox, Gaussian, Inc., Wallingford CT, 2019.
 
 ******************************************
 Gaussian 16:  ES64L-G16RevC.01  3-Jul-2019
                 8-Feb-2023 
 ******************************************
 %nproc=4
 Will use up to    4 processors via shared memory.
 %mem=5760MB
 %chk=gaussian_96_water_wb97_ptz.chk
 ------------------------------------
 #P wB97XD/6-311g** scf(maxcycle=200)
 ------------------------------------
 1/38=1,172=1/1;
 2/12=2,17=6,18=5,40=1/2;
 3/5=4,6=6,7=101,11=2,25=1,30=1,74=-58/1,2,3;
 4//1;
 5/5=2,7=200,38=5/2;
 6/7=2,8=2,9=2,10=2,28=1/1;
 99/5=1,9=1/99;
 Leave Link    1 at Wed Feb  8 14:41:35 2023, MaxMem=   754974720 cpu:               0.1 elap:               0.0
 (Enter /opt/cluster/programs/g16-c.01/g16/l101.exe)
 --------------
 Gaussian input
 --------------
 Symbolic Z-matrix:
 Charge =  0 Multiplicity = 1
 O                     0.        0.11751   0. 
 H                     0.75785  -0.47015   0. 
 H                    -0.86371  -0.29926   0. 
 
 ITRead=  0  0  0
 MicOpt= -1 -1 -1
 NAtoms=      3 NQM=        3 NQMF=       0 NMMI=      0 NMMIF=      0
                NMic=       0 NMicF=      0.
                    Isotopes and Nuclear Properties:
 (Nuclear quadrupole moments (NQMom) in fm**2, nuclear magnetic moments (NMagM)
  in nuclear magnetons)

  Atom         1           2           3
 IAtWgt=          16           1           1
 AtmWgt=  15.9949146   1.0078250   1.0078250
 NucSpn=           0           1           1
 AtZEff=  -0.0000000  -0.0000000  -0.0000000
 NQMom=    0.0000000   0.0000000   0.0000000
 NMagM=    0.0000000   2.7928460   2.7928460
 AtZNuc=   8.0000000   1.0000000   1.0000000
 Leave Link  101 at Wed Feb  8 14:41:35 2023, MaxMem=   754974720 cpu:               0.9 elap:               0.4
 (Enter /opt/cluster/programs/g16-c.01/g16/l202.exe)
                          Input orientation:                          
 ---------------------------------------------------------------------
 Center     Atomic      Atomic             Coordinates (Angstroms)
 Number     Number       Type             X           Y           Z
 ---------------------------------------------------------------------
      1          8           0        0.000000    0.117510    0.000000
      2          1           0        0.757850   -0.470150    0.000000
      3          1           0       -0.863705   -0.299257    0.000000
 ---------------------------------------------------------------------
                    Distance matrix (angstroms):
                    1          2          3
     1  O    0.000000
     2  H    0.959000   0.000000
     3  H    0.959000   1.630535   0.000000
 Stoichiometry    H2O
 Framework group  C2V[C2(O),SGV(H2)]
 Deg. of freedom     2
 Full point group                 C2V     NOp   4
 Largest Abelian subgroup         C2V     NOp   4
 Largest concise Abelian subgroup C2      NOp   2
                         Standard orientation:                         
 ---------------------------------------------------------------------
 Center     Atomic      Atomic             Coordinates (Angstroms)
 Number     Number       Type             X           Y           Z
 ---------------------------------------------------------------------
      1          8           0        0.000000    0.000000    0.100999
      2          1           0       -0.000000    0.815268   -0.403996
      3          1           0       -0.000000   -0.815268   -0.403996
 ---------------------------------------------------------------------
 Rotational constants (GHZ):        1107.0657912         377.2261440         281.3558099
 Leave Link  202 at Wed Feb  8 14:41:35 2023, MaxMem=   754974720 cpu:               0.0 elap:               0.0
 (Enter /opt/cluster/programs/g16-c.01/g16/l301.exe)
 Standard basis: 6-311G(d,p) (5D, 7F)
 Ernie: Thresh=  0.10000D-02 Tol=  0.10000D-05 Strict=F.
 There are    15 symmetry adapted cartesian basis functions of A1  symmetry.
 There are     2 symmetry adapted cartesian basis functions of A2  symmetry.
 There are     5 symmetry adapted cartesian basis functions of B1  symmetry.
 There are     9 symmetry adapted cartesian basis functions of B2  symmetry.
 There are    14 symmetry adapted basis functions of A1  symmetry.
 There are     2 symmetry adapted basis functions of A2  symmetry.
 There are     5 symmetry adapted basis functions of B1  symmetry.
 There are     9 symmetry adapted basis functions of B2  symmetry.
    30 basis functions,    48 primitive gaussians,    31 cartesian basis functions
     5 alpha electrons        5 beta electrons
       nuclear repulsion energy         9.1533589341 Hartrees.
 IExCor= 4639 DFT=T Ex+Corr=wB97XD ExCW=0 ScaHFX=  1.000000
 ScaDFX=  1.000000  1.000000  1.000000  1.000000 ScalE2=  1.000000  1.000000
 IRadAn=      5 IRanWt=     -1 IRanGd=            0 ICorTp=0 IEmpDi=121
 HFx  wShort=  0.000000 wLong=  0.200000 cFull=  0.222036 cShort=  0.000000 cLong=  0.777964
 DFx  wShort=  0.000000 wLong=  0.200000 cFull=  0.000000 cShort=  0.000000 cLong=  1.000000
 NAtoms=    3 NActive=    3 NUniq=    2 SFac= 2.25D+00 NAtFMM=   60 NAOKFM=F Big=F
 Integral buffers will be    131072 words long.
 Raffenetti 2 integral format.
 Two-electron integral symmetry is turned on.
 R6Disp:  Grimme-D2 Dispersion energy=       -0.0000408537 Hartrees.
 Nuclear repulsion after empirical dispersion term =        9.1533180805 Hartrees.
 Leave Link  301 at Wed Feb  8 14:41:35 2023, MaxMem=   754974720 cpu:               0.1 elap:               0.0
 (Enter /opt/cluster/programs/g16-c.01/g16/l302.exe)
 NPDir=0 NMtPBC=     1 NCelOv=     1 NCel=       1 NClECP=     1 NCelD=      1
         NCelK=      1 NCelE2=     1 NClLst=     1 CellRange=     0.0.
 One-electron integrals computed using PRISM.
 One-electron integral symmetry used in STVInt
 NBasis=    30 RedAO= T EigKep=  2.06D-02  NBF=    14     2     5     9
 NBsUse=    30 1.00D-06 EigRej= -1.00D+00 NBFU=    14     2     5     9
 Precomputing XC quadrature grid using
 IXCGrd= 4 IRadAn=           5 IRanWt=          -1 IRanGd=           0 AccXCQ= 0.00D+00.
 Generated NRdTot=       0 NPtTot=           0 NUsed=           0 NTot=          32
 NSgBfM=    31    31    31    31    31 MxSgAt=     3 MxSgA2=     3.
 Leave Link  302 at Wed Feb  8 14:41:36 2023, MaxMem=   754974720 cpu:               0.5 elap:               0.2
 (Enter /opt/cluster/programs/g16-c.01/g16/l303.exe)
 DipDrv:  MaxL=1.
 Leave Link  303 at Wed Feb  8 14:41:36 2023, MaxMem=   754974720 cpu:               0.3 elap:               0.1
 (Enter /opt/cluster/programs/g16-c.01/g16/l401.exe)
 ExpMin= 1.03D-01 ExpMax= 8.59D+03 ExpMxC= 1.30D+03 IAcc=3 IRadAn=         5 AccDes= 0.00D+00
 Harris functional with IExCor= 4639 and IRadAn=       5 diagonalized for initial guess.
 HarFok:  IExCor= 4639 AccDes= 0.00D+00 IRadAn=         5 IDoV= 1 UseB2=F ITyADJ=14
 ICtDFT=  3500011 ScaDFX=  1.000000  1.000000  1.000000  1.000000
 FoFCou: FMM=F IPFlag=           0 FMFlag=      100000 FMFlg1=           0
         NFxFlg=           0 DoJE=T BraDBF=F KetDBF=T FulRan=T
         wScrn=  0.000000 ICntrl=       500 IOpCl=  0 I1Cent=   200000004 NGrid=           0
         NMat0=    1 NMatS0=      1 NMatT0=    0 NMatD0=    1 NMtDS0=    0 NMtDT0=    0
 Petite list used in FoFCou.
 Harris En= -73.6104779537103    
 JPrj=0 DoOrth=F DoCkMO=F.
 Initial guess orbital symmetries:
       Occupied  (A1) (A1) (B2) (A1) (B1)
       Virtual   (A1) (B2) (A1) (B2) (A1) (B1) (B2) (A1) (A2) (A1)
                 (B1) (B2) (B2) (A1) (A1) (B2) (B1) (A2) (A1) (A1)
                 (B2) (B1) (A1) (B2) (A1)
 The electronic state of the initial guess is 1-A1.
 Leave Link  401 at Wed Feb  8 14:41:36 2023, MaxMem=   754974720 cpu:               0.8 elap:               0.2
 (Enter /opt/cluster/programs/g16-c.01/g16/l502.exe)
 Keep R1 ints in memory in symmetry-blocked form, NReq=3688799.
 FoFCou: FMM=F IPFlag=           0 FMFlag=           0 FMFlg1=           0
         NFxFlg=           0 DoJE=F BraDBF=F KetDBF=F FulRan=T
         wScrn=  0.000000 ICntrl=       600 IOpCl=  0 I1Cent=           0 NGrid=           0
         NMat0=    1 NMatS0=    465 NMatT0=    0 NMatD0=    1 NMtDS0=    0 NMtDT0=    0
 Petite list used in FoFCou.
 Closed shell SCF:
 Using DIIS extrapolation, IDIIS=  1040.
 NGot=   754974720 LenX=   754939916 LenY=   754938514
 Requested convergence on RMS density matrix=1.00D-08 within 200 cycles.
 Requested convergence on MAX density matrix=1.00D-06.
 Requested convergence on             energy=1.00D-06.
 No special actions if energy rises.
 Integral accuracy reduced to 1.0D-05 until final iterations.

 Cycle   1  Pass 0  IDiag  1:
 E= -76.4101408742740    
 DIIS: error= 8.67D-02 at cycle   1 NSaved=   1.
 NSaved= 1 IEnMin= 1 EnMin= -76.4101408742740     IErMin= 1 ErrMin= 8.67D-02
 ErrMax= 8.67D-02  0.00D+00 EMaxC= 1.00D-01 BMatC= 1.29D-01 BMatP= 1.29D-01
 IDIUse=3 WtCom= 1.33D-01 WtEn= 8.67D-01
 Coeff-Com:  0.100D+01
 Coeff-En:   0.100D+01
 Coeff:      0.100D+01
 Gap=     0.491 Goal=   None    Shift=    0.000
 GapD=    0.491 DampG=2.000 DampE=0.500 DampFc=1.0000 IDamp=-1.
 RMSDP=2.31D-03 MaxDP=1.62D-02              OVMax= 3.45D-02

 Cycle   2  Pass 0  IDiag  1:
 E= -76.4195388275968     Delta-E=       -0.009397953323 Rises=F Damp=F
 DIIS: error= 5.79D-03 at cycle   2 NSaved=   2.
 NSaved= 2 IEnMin= 2 EnMin= -76.4195388275968     IErMin= 2 ErrMin= 5.79D-03
 ErrMax= 5.79D-03  0.00D+00 EMaxC= 1.00D-01 BMatC= 6.96D-04 BMatP= 1.29D-01
 IDIUse=3 WtCom= 9.42D-01 WtEn= 5.79D-02
 Coeff-Com:  0.405D-01 0.959D+00
 Coeff-En:   0.000D+00 0.100D+01
 Coeff:      0.382D-01 0.962D+00
 Gap=     0.510 Goal=   None    Shift=    0.000
 RMSDP=6.15D-04 MaxDP=8.08D-03 DE=-9.40D-03 OVMax= 7.57D-03

 Cycle   3  Pass 0  IDiag  1:
 E= -76.4197101830507     Delta-E=       -0.000171355454 Rises=F Damp=F
 DIIS: error= 3.95D-03 at cycle   3 NSaved=   3.
 NSaved= 3 IEnMin= 3 EnMin= -76.4197101830507     IErMin= 3 ErrMin= 3.95D-03
 ErrMax= 3.95D-03  0.00D+00 EMaxC= 1.00D-01 BMatC= 3.21D-04 BMatP= 6.96D-04
 IDIUse=3 WtCom= 9.60D-01 WtEn= 3.95D-02
 Coeff-Com:  0.193D-01 0.429D+00 0.551D+00
 Coeff-En:   0.000D+00 0.297D+00 0.703D+00
 Coeff:      0.185D-01 0.424D+00 0.557D+00
 Gap=     0.503 Goal=   None    Shift=    0.000
 RMSDP=2.93D-04 MaxDP=3.25D-03 DE=-1.71D-04 OVMax= 4.14D-03

 Cycle   4  Pass 0  IDiag  1:
 E= -76.4199004142626     Delta-E=       -0.000190231212 Rises=F Damp=F
 DIIS: error= 6.56D-04 at cycle   4 NSaved=   4.
 NSaved= 4 IEnMin= 4 EnMin= -76.4199004142626     IErMin= 4 ErrMin= 6.56D-04
 ErrMax= 6.56D-04  0.00D+00 EMaxC= 1.00D-01 BMatC= 8.36D-06 BMatP= 3.21D-04
 IDIUse=3 WtCom= 9.93D-01 WtEn= 6.56D-03
 Coeff-Com:  0.167D-02 0.487D-01 0.161D+00 0.789D+00
 Coeff-En:   0.000D+00 0.000D+00 0.000D+00 0.100D+01
 Coeff:      0.166D-02 0.484D-01 0.159D+00 0.790D+00
 Gap=     0.504 Goal=   None    Shift=    0.000
 RMSDP=5.41D-05 MaxDP=7.13D-04 DE=-1.90D-04 OVMax= 5.86D-04

 Cycle   5  Pass 0  IDiag  1:
 E= -76.4199056935080     Delta-E=       -0.000005279245 Rises=F Damp=F
 DIIS: error= 6.51D-05 at cycle   5 NSaved=   5.
 NSaved= 5 IEnMin= 5 EnMin= -76.4199056935080     IErMin= 5 ErrMin= 6.51D-05
 ErrMax= 6.51D-05  0.00D+00 EMaxC= 1.00D-01 BMatC= 7.09D-08 BMatP= 8.36D-06
 IDIUse=1 WtCom= 1.00D+00 WtEn= 0.00D+00
 Coeff-Com: -0.738D-03-0.196D-01-0.284D-01-0.474D-01 0.110D+01
 Coeff:     -0.738D-03-0.196D-01-0.284D-01-0.474D-01 0.110D+01
 Gap=     0.504 Goal=   None    Shift=    0.000
 RMSDP=2.12D-05 MaxDP=2.08D-04 DE=-5.28D-06 OVMax= 3.18D-04

 Cycle   6  Pass 0  IDiag  1:
 E= -76.4199058628736     Delta-E=       -0.000000169366 Rises=F Damp=F
 DIIS: error= 1.14D-05 at cycle   6 NSaved=   6.
 NSaved= 6 IEnMin= 6 EnMin= -76.4199058628736     IErMin= 6 ErrMin= 1.14D-05
 ErrMax= 1.14D-05  0.00D+00 EMaxC= 1.00D-01 BMatC= 3.61D-09 BMatP= 7.09D-08
 IDIUse=1 WtCom= 1.00D+00 WtEn= 0.00D+00
 Coeff-Com:  0.152D-03 0.358D-02 0.538D-02-0.105D-01-0.240D+00 0.124D+01
 Coeff:      0.152D-03 0.358D-02 0.538D-02-0.105D-01-0.240D+00 0.124D+01
 Gap=     0.504 Goal=   None    Shift=    0.000
 RMSDP=5.14D-06 MaxDP=5.79D-05 DE=-1.69D-07 OVMax= 7.98D-05

 Initial convergence to 1.0D-05 achieved.  Increase integral accuracy.
 Cycle   7  Pass 1  IDiag  1:
 E= -76.4199070604607     Delta-E=       -0.000001197587 Rises=F Damp=F
 DIIS: error= 1.60D-05 at cycle   1 NSaved=   1.
 NSaved= 1 IEnMin= 1 EnMin= -76.4199070604607     IErMin= 1 ErrMin= 1.60D-05
 ErrMax= 1.60D-05  0.00D+00 EMaxC= 1.00D-01 BMatC= 4.64D-09 BMatP= 4.64D-09
 IDIUse=1 WtCom= 1.00D+00 WtEn= 0.00D+00
 Coeff-Com:  0.100D+01
 Coeff:      0.100D+01
 Gap=     0.504 Goal=   None    Shift=    0.000
 RMSDP=5.14D-06 MaxDP=5.79D-05 DE=-1.20D-06 OVMax= 2.11D-05

 Cycle   8  Pass 1  IDiag  1:
 E= -76.4199070647066     Delta-E=       -0.000000004246 Rises=F Damp=F
 DIIS: error= 2.11D-06 at cycle   2 NSaved=   2.
 NSaved= 2 IEnMin= 2 EnMin= -76.4199070647066     IErMin= 2 ErrMin= 2.11D-06
 ErrMax= 2.11D-06  0.00D+00 EMaxC= 1.00D-01 BMatC= 9.47D-11 BMatP= 4.64D-09
 IDIUse=1 WtCom= 1.00D+00 WtEn= 0.00D+00
 Coeff-Com: -0.470D-01 0.105D+01
 Coeff:     -0.470D-01 0.105D+01
 Gap=     0.504 Goal=   None    Shift=    0.000
 RMSDP=3.30D-07 MaxDP=2.44D-06 DE=-4.25D-09 OVMax= 6.34D-06

 Cycle   9  Pass 1  IDiag  1:
 E= -76.4199070648062     Delta-E=       -0.000000000100 Rises=F Damp=F
 DIIS: error= 8.83D-07 at cycle   3 NSaved=   3.
 NSaved= 3 IEnMin= 3 EnMin= -76.4199070648062     IErMin= 3 ErrMin= 8.83D-07
 ErrMax= 8.83D-07  0.00D+00 EMaxC= 1.00D-01 BMatC= 1.61D-11 BMatP= 9.47D-11
 IDIUse=1 WtCom= 1.00D+00 WtEn= 0.00D+00
 Coeff-Com: -0.259D-01 0.253D+00 0.773D+00
 Coeff:     -0.259D-01 0.253D+00 0.773D+00
 Gap=     0.504 Goal=   None    Shift=    0.000
 RMSDP=9.47D-08 MaxDP=1.10D-06 DE=-9.97D-11 OVMax= 1.45D-06

 Cycle  10  Pass 1  IDiag  1:
 E= -76.4199070648174     Delta-E=       -0.000000000011 Rises=F Damp=F
 DIIS: error= 3.36D-07 at cycle   4 NSaved=   4.
 NSaved= 4 IEnMin= 4 EnMin= -76.4199070648174     IErMin= 4 ErrMin= 3.36D-07
 ErrMax= 3.36D-07  0.00D+00 EMaxC= 1.00D-01 BMatC= 3.65D-12 BMatP= 1.61D-11
 IDIUse=1 WtCom= 1.00D+00 WtEn= 0.00D+00
 Coeff-Com: -0.711D-02 0.268D-01 0.321D+00 0.660D+00
 Coeff:     -0.711D-02 0.268D-01 0.321D+00 0.660D+00
 Gap=     0.504 Goal=   None    Shift=    0.000
 RMSDP=4.75D-08 MaxDP=5.25D-07 DE=-1.12D-11 OVMax= 9.41D-07

 Cycle  11  Pass 1  IDiag  1:
 E= -76.4199070648206     Delta-E=       -0.000000000003 Rises=F Damp=F
 DIIS: error= 8.50D-08 at cycle   5 NSaved=   5.
 NSaved= 5 IEnMin= 5 EnMin= -76.4199070648206     IErMin= 5 ErrMin= 8.50D-08
 ErrMax= 8.50D-08  0.00D+00 EMaxC= 1.00D-01 BMatC= 1.71D-13 BMatP= 3.65D-12
 IDIUse=1 WtCom= 1.00D+00 WtEn= 0.00D+00
 Coeff-Com:  0.322D-02-0.344D-01-0.104D+00 0.285D-01 0.111D+01
 Coeff:      0.322D-02-0.344D-01-0.104D+00 0.285D-01 0.111D+01
 Gap=     0.504 Goal=   None    Shift=    0.000
 RMSDP=2.80D-08 MaxDP=2.01D-07 DE=-3.24D-12 OVMax= 5.70D-07

 Cycle  12  Pass 1  IDiag  1:
 E= -76.4199070648210     Delta-E=       -0.000000000000 Rises=F Damp=F
 DIIS: error= 9.85D-09 at cycle   6 NSaved=   6.
 NSaved= 6 IEnMin= 6 EnMin= -76.4199070648210     IErMin= 6 ErrMin= 9.85D-09
 ErrMax= 9.85D-09  0.00D+00 EMaxC= 1.00D-01 BMatC= 2.12D-15 BMatP= 1.71D-13
 IDIUse=1 WtCom= 1.00D+00 WtEn= 0.00D+00
 Coeff-Com: -0.149D-03 0.318D-02 0.612D-02-0.220D-01-0.196D+00 0.121D+01
 Coeff:     -0.149D-03 0.318D-02 0.612D-02-0.220D-01-0.196D+00 0.121D+01
 Gap=     0.504 Goal=   None    Shift=    0.000
 RMSDP=5.77D-09 MaxDP=6.14D-08 DE=-3.69D-13 OVMax= 1.12D-07

 SCF Done:  E(RwB97XD) =  -76.4199070648     A.U. after   12 cycles
            NFock= 12  Conv=0.58D-08     -V/T= 2.0019
 KE= 7.627518149160D+01 PE=-1.994774983594D+02 EE= 3.762909172249D+01
 Leave Link  502 at Wed Feb  8 14:41:36 2023, MaxMem=   754974720 cpu:               2.1 elap:               0.5
 (Enter /opt/cluster/programs/g16-c.01/g16/l601.exe)
 Copying SCF densities to generalized density rwf, IOpCl= 0 IROHF=0.

 **********************************************************************

            Population analysis using the SCF Density.

 **********************************************************************

 Orbital symmetries:
       Occupied  (A1) (A1) (B2) (A1) (B1)
       Virtual   (A1) (B2) (A1) (B2) (A1) (B1) (B2) (A1) (A2) (A1)
                 (B1) (B2) (B2) (A1) (A1) (B2) (B1) (A2) (A1) (A1)
                 (B2) (B1) (A1) (B2) (A1)
 The electronic state is 1-A1.
 Alpha  occ. eigenvalues --  -19.21925  -1.09335  -0.62917  -0.43936  -0.38265
 Alpha virt. eigenvalues --    0.12089   0.19264   0.47221   0.49046   0.85031
 Alpha virt. eigenvalues --    0.85714   0.94554   1.15048   1.31919   1.49926
 Alpha virt. eigenvalues --    1.60539   1.66770   2.08295   2.10213   2.45371
 Alpha virt. eigenvalues --    2.53159   3.14198   3.29144   3.34251   3.79893
 Alpha virt. eigenvalues --    3.85196   4.88655   5.21723   5.81136  49.99786
          Condensed to atoms (all electrons):
               1          2          3
     1  O    7.869950   0.330183   0.330183
     2  H    0.330183   0.434397  -0.029738
     3  H    0.330183  -0.029738   0.434397
 Mulliken charges:
               1
     1  O   -0.530317
     2  H    0.265158
     3  H    0.265158
 Sum of Mulliken charges =   0.00000
 Mulliken charges with hydrogens summed into heavy atoms:
               1
     1  O    0.000000
 Electronic spatial extent (au):  <R**2>=             19.0071
 Charge=              0.0000 electrons
 Dipole moment (field-independent basis, Debye):
    X=             -0.0000    Y=              0.0000    Z=             -1.9100  Tot=              1.9100
 Quadrupole moment (field-independent basis, Debye-Ang):
   XX=             -7.1836   YY=             -3.6994   ZZ=             -6.3373
   XY=              0.0000   XZ=              0.0000   YZ=             -0.0000
 Traceless Quadrupole moment (field-independent basis, Debye-Ang):
   XX=             -1.4435   YY=              2.0407   ZZ=             -0.5972
   XY=              0.0000   XZ=              0.0000   YZ=             -0.0000
 Octapole moment (field-independent basis, Debye-Ang**2):
  XXX=              0.0000  YYY=              0.0000  ZZZ=             -1.0590  XYY=             -0.0000
  XXY=              0.0000  XXZ=             -0.2980  XZZ=              0.0000  YZZ=              0.0000
  YYZ=             -1.2903  XYZ=             -0.0000
 Hexadecapole moment (field-independent basis, Debye-Ang**3):
 XXXX=             -5.2677 YYYY=             -5.3818 ZZZZ=             -6.0794 XXXY=             -0.0000
 XXXZ=             -0.0000 YYYX=              0.0000 YYYZ=              0.0000 ZZZX=             -0.0000
 ZZZY=              0.0000 XXYY=             -2.1698 XXZZ=             -1.9216 YYZZ=             -1.7507
 XXYZ=              0.0000 YYXZ=              0.0000 ZZXY=             -0.0000
 N-N= 9.153318080462D+00 E-N=-1.994774982873D+02  KE= 7.627518149160D+01
 Symmetry A1   KE= 6.807086958963D+01
 Symmetry A2   KE= 2.687370400488D-35
 Symmetry B1   KE= 4.622562961879D+00
 Symmetry B2   KE= 3.581748940085D+00
 No NMR shielding tensors so no spin-rotation constants.
 Leave Link  601 at Wed Feb  8 14:41:37 2023, MaxMem=   754974720 cpu:               0.5 elap:               0.1
 (Enter /opt/cluster/programs/g16-c.01/g16/l9999.exe)
 Unable to Open any file for archive entry.
 1\1\GINC-NODE61\SP\RwB97XD\6-311G(d,p)\H2O1\BOITTIER\08-Feb-2023\0\\#P
  wB97XD/6-311g** scf(maxcycle=200)\\Gaussian input\\0,1\O,0,0.,0.11751
 ,0.\H,0,0.7578497316,-0.4701504329,0.\H,0,-0.8637050384,-0.2992568492,
 0.\\Version=ES64L-G16RevC.01\State=1-A1\HF=-76.4199071\RMSD=5.769e-09\
 Dipole=-0.0787572,-0.7473021,0.\Quadrupole=1.4956852,-0.42246,-1.07322
 51,-0.2044213,0.,0.\PG=C02V [C2(O1),SGV(H2)]\\@
 The archive entry for this job was punched.


 BRING ME INTO THE COMPANY OF THOSE WHO SEEK TRUTH,
 AND DELIVER ME FROM THOSE WHO HAVE FOUND IT.
 Job cpu time:       0 days  0 hours  0 minutes  5.6 seconds.
 Elapsed time:       0 days  0 hours  0 minutes  1.6 seconds.
 File lengths (MBytes):  RWF=      6 Int=      0 D2E=      0 Chk=      1 Scr=      1
 Normal termination of Gaussian 16 at Wed Feb  8 14:41:37 2023.
