 Entering Gaussian System, Link 0=/opt/cluster/programs/g16-c.01/g16/g16
 Input=/scratch/boittier/jobs/tmp.7261763/gaussian_92_water_ccsdt_atz.com
 Output=/scratch/boittier/jobs/tmp.7261763/gaussian_92_water_ccsdt_atz.out
 Initial command:
 /opt/cluster/programs/g16-c.01/g16/l1.exe "/scratch/boittier/jobs/tmp.7261763/Gau-107454.inp" -scrdir="/scratch/boittier/jobs/tmp.7261763/"
 Entering Link 1 = /opt/cluster/programs/g16-c.01/g16/l1.exe PID=    107455.
  
 Copyright (c) 1988-2019, Gaussian, Inc.  All Rights Reserved.
  
 This is part of the Gaussian(R) 16 program.  It is based on
 the Gaussian(R) 09 system (copyright 2009, Gaussian, Inc.),
 the Gaussian(R) 03 system (copyright 2003, Gaussian, Inc.),
 the Gaussian(R) 98 system (copyright 1998, Gaussian, Inc.),
 the Gaussian(R) 94 system (copyright 1995, Gaussian, Inc.),
 the Gaussian 92(TM) system (copyright 1992, Gaussian, Inc.),
 the Gaussian 90(TM) system (copyright 1990, Gaussian, Inc.),
 the Gaussian 88(TM) system (copyright 1988, Gaussian, Inc.),
 the Gaussian 86(TM) system (copyright 1986, Carnegie Mellon
 University), and the Gaussian 82(TM) system (copyright 1983,
 Carnegie Mellon University). Gaussian is a federally registered
 trademark of Gaussian, Inc.
  
 This software contains proprietary and confidential information,
 including trade secrets, belonging to Gaussian, Inc.
  
 This software is provided under written license and may be
 used, copied, transmitted, or stored only in accord with that
 written license.
  
 The following legend is applicable only to US Government
 contracts under FAR:
  
                    RESTRICTED RIGHTS LEGEND
  
 Use, reproduction and disclosure by the US Government is
 subject to restrictions as set forth in subparagraphs (a)
 and (c) of the Commercial Computer Software - Restricted
 Rights clause in FAR 52.227-19.
  
 Gaussian, Inc.
 340 Quinnipiac St., Bldg. 40, Wallingford CT 06492
  
  
 ---------------------------------------------------------------
 Warning -- This program may not be used in any manner that
 competes with the business of Gaussian, Inc. or will provide
 assistance to any competitor of Gaussian, Inc.  The licensee
 of this program is prohibited from giving any competitor of
 Gaussian, Inc. access to this program.  By using this program,
 the user acknowledges that Gaussian, Inc. is engaged in the
 business of creating and licensing software in the field of
 computational chemistry and represents and warrants to the
 licensee that it is not a competitor of Gaussian, Inc. and that
 it will not use this program in any manner prohibited above.
 ---------------------------------------------------------------
  

 Cite this work as:
 Gaussian 16, Revision C.01,
 M. J. Frisch, G. W. Trucks, H. B. Schlegel, G. E. Scuseria, 
 M. A. Robb, J. R. Cheeseman, G. Scalmani, V. Barone, 
 G. A. Petersson, H. Nakatsuji, X. Li, M. Caricato, A. V. Marenich, 
 J. Bloino, B. G. Janesko, R. Gomperts, B. Mennucci, H. P. Hratchian, 
 J. V. Ortiz, A. F. Izmaylov, J. L. Sonnenberg, D. Williams-Young, 
 F. Ding, F. Lipparini, F. Egidi, J. Goings, B. Peng, A. Petrone, 
 T. Henderson, D. Ranasinghe, V. G. Zakrzewski, J. Gao, N. Rega, 
 G. Zheng, W. Liang, M. Hada, M. Ehara, K. Toyota, R. Fukuda, 
 J. Hasegawa, M. Ishida, T. Nakajima, Y. Honda, O. Kitao, H. Nakai, 
 T. Vreven, K. Throssell, J. A. Montgomery, Jr., J. E. Peralta, 
 F. Ogliaro, M. J. Bearpark, J. J. Heyd, E. N. Brothers, K. N. Kudin, 
 V. N. Staroverov, T. A. Keith, R. Kobayashi, J. Normand, 
 K. Raghavachari, A. P. Rendell, J. C. Burant, S. S. Iyengar, 
 J. Tomasi, M. Cossi, J. M. Millam, M. Klene, C. Adamo, R. Cammi, 
 J. W. Ochterski, R. L. Martin, K. Morokuma, O. Farkas, 
 J. B. Foresman, and D. J. Fox, Gaussian, Inc., Wallingford CT, 2019.
 
 ******************************************
 Gaussian 16:  ES64L-G16RevC.01  3-Jul-2019
                 8-Feb-2023 
 ******************************************
 %nproc=4
 Will use up to    4 processors via shared memory.
 %mem=5760MB
 %chk=gaussian_92_water_ccsdt_atz.chk
 ----------------------------------------
 #P CCSD(T)/aug-cc-pVTZ scf(maxcycle=200)
 ----------------------------------------
 1/38=1,172=1/1;
 2/12=2,17=6,18=5,40=1/2;
 3/5=16,6=1,7=10,11=9,25=1,30=1/1,2,3;
 4//1;
 5/5=2,7=200,38=5/2;
 8/6=4,9=120000,10=1/1,4;
 9/5=7,14=2/13;
 6/7=2,8=2,9=2,10=2/1;
 99/5=1,9=1/99;
 Leave Link    1 at Wed Feb  8 13:52:43 2023, MaxMem=   754974720 cpu:               0.2 elap:               0.1
 (Enter /opt/cluster/programs/g16-c.01/g16/l101.exe)
 --------------
 Gaussian input
 --------------
 Symbolic Z-matrix:
 Charge =  0 Multiplicity = 1
 O                     0.        0.11751   0. 
 H                     0.75785  -0.47015   0. 
 H                    -0.7973   -0.41541   0. 
 
 ITRead=  0  0  0
 MicOpt= -1 -1 -1
 NAtoms=      3 NQM=        3 NQMF=       0 NMMI=      0 NMMIF=      0
                NMic=       0 NMicF=      0.
                    Isotopes and Nuclear Properties:
 (Nuclear quadrupole moments (NQMom) in fm**2, nuclear magnetic moments (NMagM)
  in nuclear magnetons)

  Atom         1           2           3
 IAtWgt=          16           1           1
 AtmWgt=  15.9949146   1.0078250   1.0078250
 NucSpn=           0           1           1
 AtZEff=  -0.0000000  -0.0000000  -0.0000000
 NQMom=    0.0000000   0.0000000   0.0000000
 NMagM=    0.0000000   2.7928460   2.7928460
 AtZNuc=   8.0000000   1.0000000   1.0000000
 Leave Link  101 at Wed Feb  8 13:52:43 2023, MaxMem=   754974720 cpu:               0.7 elap:               0.2
 (Enter /opt/cluster/programs/g16-c.01/g16/l202.exe)
                          Input orientation:                          
 ---------------------------------------------------------------------
 Center     Atomic      Atomic             Coordinates (Angstroms)
 Number     Number       Type             X           Y           Z
 ---------------------------------------------------------------------
      1          8           0        0.000000    0.117510    0.000000
      2          1           0        0.757850   -0.470150    0.000000
      3          1           0       -0.797297   -0.415405    0.000000
 ---------------------------------------------------------------------
                    Distance matrix (angstroms):
                    1          2          3
     1  O    0.000000
     2  H    0.959000   0.000000
     3  H    0.959000   1.556110   0.000000
 Stoichiometry    H2O
 Framework group  C2V[C2(O),SGV(H2)]
 Deg. of freedom     2
 Full point group                 C2V     NOp   4
 Largest Abelian subgroup         C2V     NOp   4
 Largest concise Abelian subgroup C2      NOp   2
                         Standard orientation:                         
 ---------------------------------------------------------------------
 Center     Atomic      Atomic             Coordinates (Angstroms)
 Number     Number       Type             X           Y           Z
 ---------------------------------------------------------------------
      1          8           0        0.000000    0.000000    0.112127
      2          1           0       -0.000000    0.778055   -0.448508
      3          1           0       -0.000000   -0.778055   -0.448508
 ---------------------------------------------------------------------
 Rotational constants (GHZ):         898.2290402         414.1728028         283.4665626
 Leave Link  202 at Wed Feb  8 13:52:43 2023, MaxMem=   754974720 cpu:               0.1 elap:               0.1
 (Enter /opt/cluster/programs/g16-c.01/g16/l301.exe)
 Standard basis: Aug-CC-pVTZ (5D, 7F)
 Ernie: Thresh=  0.10000D-02 Tol=  0.10000D-05 Strict=F.
 Ernie:  3 primitive shells out of 52 were deleted.
 There are    42 symmetry adapted cartesian basis functions of A1  symmetry.
 There are    12 symmetry adapted cartesian basis functions of A2  symmetry.
 There are    20 symmetry adapted cartesian basis functions of B1  symmetry.
 There are    31 symmetry adapted cartesian basis functions of B2  symmetry.
 There are    35 symmetry adapted basis functions of A1  symmetry.
 There are    12 symmetry adapted basis functions of A2  symmetry.
 There are    18 symmetry adapted basis functions of B1  symmetry.
 There are    27 symmetry adapted basis functions of B2  symmetry.
    92 basis functions,   126 primitive gaussians,   105 cartesian basis functions
     5 alpha electrons        5 beta electrons
       nuclear repulsion energy         9.1688810514 Hartrees.
 IExCor=    0 DFT=F Ex=HF Corr=None ExCW=0 ScaHFX=  1.000000
 ScaDFX=  1.000000  1.000000  1.000000  1.000000 ScalE2=  1.000000  1.000000
 IRadAn=      5 IRanWt=     -1 IRanGd=            0 ICorTp=0 IEmpDi=  4
 NAtoms=    3 NActive=    3 NUniq=    2 SFac= 2.25D+00 NAtFMM=   60 NAOKFM=F Big=F
 Integral buffers will be    131072 words long.
 Raffenetti 1 integral format.
 Two-electron integral symmetry is turned on.
 Leave Link  301 at Wed Feb  8 13:52:43 2023, MaxMem=   754974720 cpu:               0.1 elap:               0.0
 (Enter /opt/cluster/programs/g16-c.01/g16/l302.exe)
 NPDir=0 NMtPBC=     1 NCelOv=     1 NCel=       1 NClECP=     1 NCelD=      1
         NCelK=      1 NCelE2=     1 NClLst=     1 CellRange=     0.0.
 One-electron integrals computed using PRISM.
 One-electron integral symmetry used in STVInt
 NBasis=    92 RedAO= T EigKep=  3.78D-04  NBF=    35    12    18    27
 NBsUse=    92 1.00D-06 EigRej= -1.00D+00 NBFU=    35    12    18    27
 Leave Link  302 at Wed Feb  8 13:52:45 2023, MaxMem=   754974720 cpu:               4.7 elap:               2.3
 (Enter /opt/cluster/programs/g16-c.01/g16/l303.exe)
 DipDrv:  MaxL=1.
 Leave Link  303 at Wed Feb  8 13:52:46 2023, MaxMem=   754974720 cpu:               0.5 elap:               0.3
 (Enter /opt/cluster/programs/g16-c.01/g16/l401.exe)
 ExpMin= 2.53D-02 ExpMax= 1.53D+04 ExpMxC= 5.22D+02 IAcc=3 IRadAn=         5 AccDes= 0.00D+00
 Harris functional with IExCor=  205 and IRadAn=       5 diagonalized for initial guess.
 HarFok:  IExCor=  205 AccDes= 0.00D+00 IRadAn=         5 IDoV= 1 UseB2=F ITyADJ=14
 ICtDFT=  3500011 ScaDFX=  1.000000  1.000000  1.000000  1.000000
 FoFCou: FMM=F IPFlag=           0 FMFlag=      100000 FMFlg1=           0
         NFxFlg=           0 DoJE=T BraDBF=F KetDBF=T FulRan=T
         wScrn=  0.000000 ICntrl=       500 IOpCl=  0 I1Cent=   200000004 NGrid=           0
         NMat0=    1 NMatS0=      1 NMatT0=    0 NMatD0=    1 NMtDS0=    0 NMtDT0=    0
 Petite list used in FoFCou.
 Harris En= -76.1537661968444    
 JPrj=0 DoOrth=F DoCkMO=F.
 Initial guess orbital symmetries:
       Occupied  (A1) (A1) (B2) (A1) (B1)
       Virtual   (A1) (B2) (A1) (B1) (A1) (B2) (B2) (A1) (A2) (A1)
                 (B1) (B2) (A1) (B2) (B2) (A1) (A1) (B1) (A2) (A1)
                 (A1) (B1) (B1) (B2) (A2) (B2) (A1) (B2) (A1) (B1)
                 (B2) (A1) (A2) (B2) (A2) (A1) (B1) (A1) (B2) (B2)
                 (A1) (B1) (A2) (A1) (A1) (B1) (B2) (A1) (B1) (B2)
                 (A1) (A2) (B2) (B2) (A1) (B1) (A2) (A1) (B2) (B1)
                 (B1) (A2) (B2) (A1) (A1) (B2) (B2) (A2) (A1) (B2)
                 (B1) (A1) (A1) (B2) (B1) (A1) (B1) (A1) (B1) (A2)
                 (A2) (B2) (A1) (B2) (A1) (B2) (A1)
 The electronic state of the initial guess is 1-A1.
 Leave Link  401 at Wed Feb  8 13:52:47 2023, MaxMem=   754974720 cpu:               2.9 elap:               1.5
 (Enter /opt/cluster/programs/g16-c.01/g16/l502.exe)
 Keep R1 ints in memory in symmetry-blocked form, NReq=11496777.
 FoFCou: FMM=F IPFlag=           0 FMFlag=           0 FMFlg1=           0
         NFxFlg=           0 DoJE=F BraDBF=F KetDBF=F FulRan=T
         wScrn=  0.000000 ICntrl=       600 IOpCl=  0 I1Cent=           0 NGrid=           0
         NMat0=    1 NMatS0=   4278 NMatT0=    0 NMatD0=    1 NMtDS0=    0 NMtDT0=    0
 Petite list used in FoFCou.
 Closed shell SCF:
 Using DIIS extrapolation, IDIIS=  1040.
 NGot=   754974720 LenX=   752607631 LenY=   752596165
 Requested convergence on RMS density matrix=1.00D-08 within 200 cycles.
 Requested convergence on MAX density matrix=1.00D-06.
 Requested convergence on             energy=1.00D-06.
 No special actions if energy rises.

 Cycle   1  Pass 1  IDiag  1:
 E= -75.9704969283569    
 DIIS: error= 6.37D-02 at cycle   1 NSaved=   1.
 NSaved= 1 IEnMin= 1 EnMin= -75.9704969283569     IErMin= 1 ErrMin= 6.37D-02
 ErrMax= 6.37D-02  0.00D+00 EMaxC= 1.00D-01 BMatC= 2.05D-01 BMatP= 2.05D-01
 IDIUse=3 WtCom= 3.63D-01 WtEn= 6.37D-01
 Coeff-Com:  0.100D+01
 Coeff-En:   0.100D+01
 Coeff:      0.100D+01
 Gap=     0.451 Goal=   None    Shift=    0.000
 GapD=    0.451 DampG=2.000 DampE=0.500 DampFc=1.0000 IDamp=-1.
 RMSDP=2.16D-03 MaxDP=4.90D-02              OVMax= 1.23D-01

 Cycle   2  Pass 1  IDiag  1:
 E= -76.0232076999043     Delta-E=       -0.052710771547 Rises=F Damp=F
 DIIS: error= 4.19D-02 at cycle   2 NSaved=   2.
 NSaved= 2 IEnMin= 2 EnMin= -76.0232076999043     IErMin= 2 ErrMin= 4.19D-02
 ErrMax= 4.19D-02  0.00D+00 EMaxC= 1.00D-01 BMatC= 5.99D-02 BMatP= 2.05D-01
 IDIUse=3 WtCom= 5.81D-01 WtEn= 4.19D-01
 Coeff-Com:  0.324D+00 0.676D+00
 Coeff-En:   0.201D+00 0.799D+00
 Coeff:      0.272D+00 0.728D+00
 Gap=     0.567 Goal=   None    Shift=    0.000
 RMSDP=1.31D-03 MaxDP=3.39D-02 DE=-5.27D-02 OVMax= 6.57D-02

 Cycle   3  Pass 1  IDiag  1:
 E= -76.0584155362421     Delta-E=       -0.035207836338 Rises=F Damp=F
 DIIS: error= 9.04D-03 at cycle   3 NSaved=   3.
 NSaved= 3 IEnMin= 3 EnMin= -76.0584155362421     IErMin= 3 ErrMin= 9.04D-03
 ErrMax= 9.04D-03  0.00D+00 EMaxC= 1.00D-01 BMatC= 3.04D-03 BMatP= 5.99D-02
 IDIUse=3 WtCom= 9.10D-01 WtEn= 9.04D-02
 Coeff-Com: -0.307D-01 0.153D+00 0.878D+00
 Coeff-En:   0.000D+00 0.000D+00 0.100D+01
 Coeff:     -0.279D-01 0.139D+00 0.889D+00
 Gap=     0.536 Goal=   None    Shift=    0.000
 RMSDP=2.27D-04 MaxDP=4.31D-03 DE=-3.52D-02 OVMax= 1.29D-02

 Cycle   4  Pass 1  IDiag  1:
 E= -76.0602996494225     Delta-E=       -0.001884113180 Rises=F Damp=F
 DIIS: error= 7.39D-04 at cycle   4 NSaved=   4.
 NSaved= 4 IEnMin= 4 EnMin= -76.0602996494225     IErMin= 4 ErrMin= 7.39D-04
 ErrMax= 7.39D-04  0.00D+00 EMaxC= 1.00D-01 BMatC= 1.54D-05 BMatP= 3.04D-03
 IDIUse=3 WtCom= 9.93D-01 WtEn= 7.39D-03
 Coeff-Com:  0.654D-02-0.555D-01-0.229D+00 0.128D+01
 Coeff-En:   0.000D+00 0.000D+00 0.000D+00 0.100D+01
 Coeff:      0.649D-02-0.551D-01-0.227D+00 0.128D+01
 Gap=     0.538 Goal=   None    Shift=    0.000
 RMSDP=3.71D-05 MaxDP=7.40D-04 DE=-1.88D-03 OVMax= 2.27D-03

 Cycle   5  Pass 1  IDiag  1:
 E= -76.0603239515130     Delta-E=       -0.000024302091 Rises=F Damp=F
 DIIS: error= 1.95D-04 at cycle   5 NSaved=   5.
 NSaved= 5 IEnMin= 5 EnMin= -76.0603239515130     IErMin= 5 ErrMin= 1.95D-04
 ErrMax= 1.95D-04  0.00D+00 EMaxC= 1.00D-01 BMatC= 6.84D-07 BMatP= 1.54D-05
 IDIUse=3 WtCom= 9.98D-01 WtEn= 1.95D-03
 Coeff-Com:  0.356D-03 0.200D-02 0.329D-02-0.279D+00 0.127D+01
 Coeff-En:   0.000D+00 0.000D+00 0.000D+00 0.000D+00 0.100D+01
 Coeff:      0.355D-03 0.199D-02 0.329D-02-0.279D+00 0.127D+01
 Gap=     0.539 Goal=   None    Shift=    0.000
 RMSDP=1.13D-05 MaxDP=2.26D-04 DE=-2.43D-05 OVMax= 7.36D-04

 Cycle   6  Pass 1  IDiag  1:
 E= -76.0603256605351     Delta-E=       -0.000001709022 Rises=F Damp=F
 DIIS: error= 2.91D-05 at cycle   6 NSaved=   6.
 NSaved= 6 IEnMin= 6 EnMin= -76.0603256605351     IErMin= 6 ErrMin= 2.91D-05
 ErrMax= 2.91D-05  0.00D+00 EMaxC= 1.00D-01 BMatC= 1.95D-08 BMatP= 6.84D-07
 IDIUse=1 WtCom= 1.00D+00 WtEn= 0.00D+00
 Coeff-Com: -0.270D-03 0.126D-02 0.552D-02 0.224D-01-0.326D+00 0.130D+01
 Coeff:     -0.270D-03 0.126D-02 0.552D-02 0.224D-01-0.326D+00 0.130D+01
 Gap=     0.539 Goal=   None    Shift=    0.000
 RMSDP=2.29D-06 MaxDP=5.44D-05 DE=-1.71D-06 OVMax= 1.55D-04

 Cycle   7  Pass 1  IDiag  1:
 E= -76.0603257203398     Delta-E=       -0.000000059805 Rises=F Damp=F
 DIIS: error= 4.78D-06 at cycle   7 NSaved=   7.
 NSaved= 7 IEnMin= 7 EnMin= -76.0603257203398     IErMin= 7 ErrMin= 4.78D-06
 ErrMax= 4.78D-06  0.00D+00 EMaxC= 1.00D-01 BMatC= 9.22D-10 BMatP= 1.95D-08
 IDIUse=1 WtCom= 1.00D+00 WtEn= 0.00D+00
 Coeff-Com:  0.273D-04-0.344D-03-0.133D-02 0.140D-01-0.176D-01-0.180D+00
 Coeff-Com:  0.119D+01
 Coeff:      0.273D-04-0.344D-03-0.133D-02 0.140D-01-0.176D-01-0.180D+00
 Coeff:      0.119D+01
 Gap=     0.539 Goal=   None    Shift=    0.000
 RMSDP=3.29D-07 MaxDP=7.86D-06 DE=-5.98D-08 OVMax= 2.78D-05

 Cycle   8  Pass 1  IDiag  1:
 E= -76.0603257223926     Delta-E=       -0.000000002053 Rises=F Damp=F
 DIIS: error= 1.13D-06 at cycle   8 NSaved=   8.
 NSaved= 8 IEnMin= 8 EnMin= -76.0603257223926     IErMin= 8 ErrMin= 1.13D-06
 ErrMax= 1.13D-06  0.00D+00 EMaxC= 1.00D-01 BMatC= 5.15D-11 BMatP= 9.22D-10
 IDIUse=1 WtCom= 1.00D+00 WtEn= 0.00D+00
 Coeff-Com:  0.788D-05 0.184D-04 0.801D-04-0.511D-02 0.218D-01-0.192D-01
 Coeff-Com: -0.346D+00 0.135D+01
 Coeff:      0.788D-05 0.184D-04 0.801D-04-0.511D-02 0.218D-01-0.192D-01
 Coeff:     -0.346D+00 0.135D+01
 Gap=     0.539 Goal=   None    Shift=    0.000
 RMSDP=1.07D-07 MaxDP=2.37D-06 DE=-2.05D-09 OVMax= 7.18D-06

 Cycle   9  Pass 1  IDiag  1:
 E= -76.0603257225242     Delta-E=       -0.000000000132 Rises=F Damp=F
 DIIS: error= 1.58D-07 at cycle   9 NSaved=   9.
 NSaved= 9 IEnMin= 9 EnMin= -76.0603257225242     IErMin= 9 ErrMin= 1.58D-07
 ErrMax= 1.58D-07  0.00D+00 EMaxC= 1.00D-01 BMatC= 6.85D-13 BMatP= 5.15D-11
 IDIUse=1 WtCom= 1.00D+00 WtEn= 0.00D+00
 Coeff-Com: -0.200D-05 0.121D-05-0.115D-05 0.856D-03-0.394D-02 0.566D-02
 Coeff-Com:  0.634D-01-0.330D+00 0.126D+01
 Coeff:     -0.200D-05 0.121D-05-0.115D-05 0.856D-03-0.394D-02 0.566D-02
 Coeff:      0.634D-01-0.330D+00 0.126D+01
 Gap=     0.539 Goal=   None    Shift=    0.000
 RMSDP=1.62D-08 MaxDP=3.54D-07 DE=-1.32D-10 OVMax= 7.28D-07

 Cycle  10  Pass 1  IDiag  1:
 E= -76.0603257225258     Delta-E=       -0.000000000002 Rises=F Damp=F
 DIIS: error= 3.26D-08 at cycle  10 NSaved=  10.
 NSaved=10 IEnMin=10 EnMin= -76.0603257225258     IErMin=10 ErrMin= 3.26D-08
 ErrMax= 3.26D-08  0.00D+00 EMaxC= 1.00D-01 BMatC= 2.64D-14 BMatP= 6.85D-13
 IDIUse=1 WtCom= 1.00D+00 WtEn= 0.00D+00
 Coeff-Com:  0.567D-06-0.973D-06-0.151D-05-0.203D-03 0.986D-03-0.191D-02
 Coeff-Com: -0.131D-01 0.840D-01-0.472D+00 0.140D+01
 Coeff:      0.567D-06-0.973D-06-0.151D-05-0.203D-03 0.986D-03-0.191D-02
 Coeff:     -0.131D-01 0.840D-01-0.472D+00 0.140D+01
 Gap=     0.539 Goal=   None    Shift=    0.000
 RMSDP=3.79D-09 MaxDP=8.56D-08 DE=-1.53D-12 OVMax= 1.73D-07

 SCF Done:  E(RHF) =  -76.0603257225     A.U. after   10 cycles
            NFock= 10  Conv=0.38D-08     -V/T= 2.0015
 KE= 7.594468055370D+01 PE=-1.989512166016D+02 EE= 3.777732927393D+01
 Leave Link  502 at Wed Feb  8 13:52:57 2023, MaxMem=   754974720 cpu:              20.2 elap:               9.8
 (Enter /opt/cluster/programs/g16-c.01/g16/l801.exe)
 Windowed orbitals will be sorted by symmetry type.
 ExpMin= 2.53D-02 ExpMax= 1.53D+04 ExpMxC= 5.22D+02 IAcc=3 IRadAn=         5 AccDes= 0.00D+00
 HarFok:  IExCor=  205 AccDes= 0.00D+00 IRadAn=         5 IDoV=-2 UseB2=F ITyADJ=14
 ICtDFT= 12500011 ScaDFX=  1.000000  1.000000  1.000000  1.000000
 Largest valence mixing into a core orbital is  1.11D-04
 Largest core mixing into a valence orbital is  1.71D-05
 Range of M.O.s used for correlation:     2    92
 NBasis=    92 NAE=     5 NBE=     5 NFC=     1 NFV=     0
 NROrb=     91 NOA=     4 NOB=     4 NVA=    87 NVB=    87

 **** Warning!!: The largest alpha MO coefficient is  0.16057705D+02

 Leave Link  801 at Wed Feb  8 13:52:57 2023, MaxMem=   754974720 cpu:               0.3 elap:               0.1
 (Enter /opt/cluster/programs/g16-c.01/g16/l804.exe)
 Closed-shell transformation, MDV=   754974720 ITran=4 ISComp=2.
 Unit  1 TFree=        277513 TCopy=        242092.
 Semi-Direct transformation.
 ModeAB=           4 MOrb=             4 LenV=     754589018
 LASXX=       368428 LTotXX=      368428 LenRXX=      751146
 LTotAB=      382718 MaxLAS=     1379560 LenRXY=           0
 NonZer=     1119574 LenScr=     2357760 LnRSAI=     1379560
 LnScr1=     2758656 LExtra=           0 Total=      7247122
 MaxDsk=          -1 SrtSym=           T ITran=            4
 DoSDTr:  NPSUse=  4
 JobTyp=0 Pass  1:  I=   1 to   4.
 (rs|ai) integrals will be sorted in core.
 Complete sort for first half transformation.
 First half transformation complete.
 Complete sort for second half transformation.
 Second half transformation complete.
 Spin components of T(2) and E(2):
     alpha-alpha T2 =       0.8118428273D-02 E2=     -0.3255350566D-01
     alpha-beta  T2 =       0.4714367861D-01 E2=     -0.2031256333D+00
     beta-beta   T2 =       0.8118428273D-02 E2=     -0.3255350566D-01
 ANorm=    0.1031203440D+01
 E2 =    -0.2682326446D+00 EUMP2 =    -0.76328558367114D+02
 Leave Link  804 at Wed Feb  8 13:52:58 2023, MaxMem=   754974720 cpu:               1.7 elap:               0.6
 (Enter /opt/cluster/programs/g16-c.01/g16/l913.exe)
 CIDS:  MDV=   754974720.
 Frozen-core window:  NFC=   1 NFV=   0.
 IFCWin=0 IBDFC=1 NFBD=     0     0 NFCmp=     0     0 NFFFC=     0     0
 Using DD3R+UMP44R for 1st iteration.
 Using DD4RQ for 2nd and later iterations.
 Keep R2 and R3 ints in memory in symmetry-blocked form, NReq=11500115.
 FoFCou: FMM=F IPFlag=           0 FMFlag=           0 FMFlg1=           0
         NFxFlg=           0 DoJE=F BraDBF=F KetDBF=F FulRan=T
         wScrn=  0.000000 ICntrl=       600 IOpCl=  0 I1Cent=           0 NGrid=           0
         NMat0=    1 NMatS0=   4278 NMatT0=    0 NMatD0=    1 NMtDS0=    0 NMtDT0=    0
 Petite list used in FoFCou.
 CIDS: In Core Option IDoMem=           1.
 CCSD(T)
 =======
 Iterations=  50 Convergence= 0.100D-06
 Produce multiple copies of IABC intergrals
 Iteration Nr.   1
 **********************
 DD1Dir will call FoFMem   1 times, MxPair=        20
 NAB=    10 NAA=     0 NBB=     0.
 MP4(R+Q)=  0.40452995D-02
 Maximum subspace dimension=  5
 A-vector RMS=  2.8446391D-03 Max=  1.2159419D-02 conv= 1.00D-05.
 RLE energy=       -0.2668512846
 E3=       -0.26978763D-02        EUMP3=      -0.76331256243D+02
 E4(DQ)=   -0.62282097D-03        UMP4(DQ)=   -0.76331879064D+02
 E4(SDQ)=  -0.24965125D-02        UMP4(SDQ)=  -0.76333752756D+02
 VARIATIONAL ENERGIES WITH THE FIRST-ORDER WAVEFUNCTION:
 DE(Corr)= -0.26684414     E(Corr)=     -76.327169863    
 NORM(A)=   0.10310274D+01
 Iteration Nr.   2
 **********************
 DD1Dir will call FoFMem   1 times, MxPair=        20
 NAB=    10 NAA=     0 NBB=     0.
 A-vector RMS=  3.0425353D-04 Max=  2.1869104D-03 conv= 1.00D-05.
 RLE energy=       -0.2726004748
 DE(Corr)= -0.27221625     E(CORR)=     -76.332541972     Delta=-5.37D-03
 NORM(A)=   0.10331248D+01
 Iteration Nr.   3
 **********************
 DD1Dir will call FoFMem   1 times, MxPair=        20
 NAB=    10 NAA=     0 NBB=     0.
 A-vector RMS=  3.9684312D-04 Max=  2.2352980D-03 conv= 1.00D-05.
 RLE energy=       -0.2729077211
 DE(Corr)= -0.27253841     E(CORR)=     -76.332864128     Delta=-3.22D-04
 NORM(A)=   0.10335335D+01
 Iteration Nr.   4
 **********************
 DD1Dir will call FoFMem   1 times, MxPair=        20
 NAB=    10 NAA=     0 NBB=     0.
 A-vector RMS=  6.0711724D-05 Max=  3.7588137D-04 conv= 1.00D-05.
 RLE energy=       -0.2729403472
 DE(Corr)= -0.27291282     E(CORR)=     -76.333238547     Delta=-3.74D-04
 NORM(A)=   0.10336434D+01
 Iteration Nr.   5
 **********************
 DD1Dir will call FoFMem   1 times, MxPair=        20
 NAB=    10 NAA=     0 NBB=     0.
 A-vector RMS=  3.0236570D-05 Max=  1.9254866D-04 conv= 1.00D-05.
 RLE energy=       -0.2729521593
 DE(Corr)= -0.27294689     E(CORR)=     -76.333272612     Delta=-3.41D-05
 NORM(A)=   0.10336657D+01
 Iteration Nr.   6
 **********************
 DD1Dir will call FoFMem   1 times, MxPair=        20
 NAB=    10 NAA=     0 NBB=     0.
 A-vector RMS=  7.0565552D-06 Max=  4.0735561D-05 conv= 1.00D-05.
 RLE energy=       -0.2729486053
 DE(Corr)= -0.27294952     E(CORR)=     -76.333275243     Delta=-2.63D-06
 NORM(A)=   0.10336676D+01
 Iteration Nr.   7
 **********************
 DD1Dir will call FoFMem   1 times, MxPair=        20
 NAB=    10 NAA=     0 NBB=     0.
 A-vector RMS=  2.4905442D-06 Max=  1.2199934D-05 conv= 1.00D-05.
 RLE energy=       -0.2729486167
 DE(Corr)= -0.27294951     E(CORR)=     -76.333275233     Delta= 1.04D-08
 NORM(A)=   0.10336682D+01
 Iteration Nr.   8
 **********************
 DD1Dir will call FoFMem   1 times, MxPair=        20
 NAB=    10 NAA=     0 NBB=     0.
 A-vector RMS=  9.3676500D-07 Max=  5.0502705D-06 conv= 1.00D-05.
 RLE energy=       -0.2729491622
 DE(Corr)= -0.27294927     E(CORR)=     -76.333274989     Delta= 2.44D-07
 NORM(A)=   0.10336686D+01
 Iteration Nr.   9
 **********************
 DD1Dir will call FoFMem   1 times, MxPair=        20
 NAB=    10 NAA=     0 NBB=     0.
 A-vector RMS=  2.4837386D-07 Max=  1.3923339D-06 conv= 1.00D-05.
 RLE energy=       -0.2729492620
 DE(Corr)= -0.27294928     E(CORR)=     -76.333275000     Delta=-1.09D-08
 NORM(A)=   0.10336687D+01
 CI/CC converged in    9 iterations to DelEn=-1.09D-08 Conv= 1.00D-07 ErrA1= 2.48D-07 Conv= 1.00D-05
 Wavefunction amplitudes converged. E(Corr)=     -76.333275000    
 Largest amplitude= 2.07D-02
 IPart=  3 IA=    6   11.23% done.
 IPart=  1 IA=   11   21.79% done.
 IPart=  2 IA=   16   31.68% done.
 IPart=  2 IA=   21   40.90% done.
 IPart=  4 IA=   27   51.08% done.
 IPart=  2 IA=   33   60.30% done.
 IPart=  2 IA=   41   71.10% done.
 IPart=  1 IA=   49   80.19% done.
 IPart=  2 IA=   61   90.62% done.
 Time for triples=        6.20 seconds.
 T4(CCSD)= -0.89402333D-02
 T5(CCSD)=  0.31916072D-03
 CCSD(T)= -0.76341896073D+02
 Discarding MO integrals.
 Leave Link  913 at Wed Feb  8 13:53:00 2023, MaxMem=   754974720 cpu:               9.7 elap:               2.4
 (Enter /opt/cluster/programs/g16-c.01/g16/l601.exe)
 Copying SCF densities to generalized density rwf, IOpCl= 0 IROHF=0.

 **********************************************************************

            Population analysis using the SCF Density.

 **********************************************************************

 Orbital symmetries:
       Occupied  (A1) (A1) (B2) (A1) (B1)
       Virtual   (A1) (B2) (A1) (B1) (A1) (B2) (B2) (A1) (A2) (B1)
                 (A1) (B2) (A1) (B2) (B2) (A1) (A1) (A2) (B1) (A1)
                 (B1) (A1) (B2) (A2) (B1) (B2) (A1) (A1) (B2) (B1)
                 (B2) (A2) (A1) (B2) (A2) (A1) (B1) (B2) (A1) (B2)
                 (A1) (B1) (A2) (A1) (B1) (A1) (B2) (A1) (B2) (B1)
                 (A1) (B2) (A2) (B2) (A1) (A2) (B1) (A1) (B2) (B1)
                 (A2) (B1) (A1) (B2) (A1) (B2) (B2) (A2) (B2) (A1)
                 (B1) (A1) (A1) (B2) (B1) (A1) (B1) (B1) (A1) (A2)
                 (A2) (B2) (A1) (B2) (A1) (B2) (A1)
 The electronic state is 1-A1.
 Alpha  occ. eigenvalues --  -20.56573  -1.34992  -0.72430  -0.57695  -0.50904
 Alpha virt. eigenvalues --    0.02966   0.04744   0.13649   0.15793   0.17421
 Alpha virt. eigenvalues --    0.18203   0.22873   0.24438   0.26380   0.30469
 Alpha virt. eigenvalues --    0.31319   0.36517   0.43759   0.46652   0.60216
 Alpha virt. eigenvalues --    0.65404   0.71108   0.71923   0.73121   0.82743
 Alpha virt. eigenvalues --    0.84352   0.89022   0.91253   0.92035   0.92406
 Alpha virt. eigenvalues --    0.92779   0.97114   1.02236   1.04477   1.08487
 Alpha virt. eigenvalues --    1.11380   1.17219   1.17669   1.26008   1.51393
 Alpha virt. eigenvalues --    1.56413   1.59500   1.78325   1.79769   2.00168
 Alpha virt. eigenvalues --    2.11429   2.25910   2.31797   2.32100   2.41244
 Alpha virt. eigenvalues --    2.41364   2.43832   2.47120   2.68780   2.70338
 Alpha virt. eigenvalues --    2.76599   2.85718   2.88265   3.64231   3.76769
 Alpha virt. eigenvalues --    4.00519   4.08806   4.20994   4.22808   4.33484
 Alpha virt. eigenvalues --    4.38099   4.39846   4.41794   4.49146   4.70468
 Alpha virt. eigenvalues --    4.80775   5.12039   5.16747   5.30298   5.32349
 Alpha virt. eigenvalues --    5.50735   5.71835   6.13476   6.53171   6.70715
 Alpha virt. eigenvalues --    6.85042   7.14037   7.25384   7.29097   7.29993
 Alpha virt. eigenvalues --    7.36364   7.38118   7.54986   7.88864   7.95639
 Alpha virt. eigenvalues --    8.77518  15.81325
          Condensed to atoms (all electrons):
               1          2          3
     1  O    7.894217   0.273509   0.273509
     2  H    0.273509   0.489154   0.016719
     3  H    0.273509   0.016719   0.489154
 Mulliken charges:
               1
     1  O   -0.441236
     2  H    0.220618
     3  H    0.220618
 Sum of Mulliken charges =   0.00000
 Mulliken charges with hydrogens summed into heavy atoms:
               1
     1  O    0.000000
 Electronic spatial extent (au):  <R**2>=             19.5040
 Charge=              0.0000 electrons
 Dipole moment (field-independent basis, Debye):
    X=             -0.0000    Y=              0.0000    Z=             -1.9178  Tot=              1.9178
 Quadrupole moment (field-independent basis, Debye-Ang):
   XX=             -7.5690   YY=             -4.0683   ZZ=             -6.3653
   XY=              0.0000   XZ=              0.0000   YZ=             -0.0000
 Traceless Quadrupole moment (field-independent basis, Debye-Ang):
   XX=             -1.5681   YY=              1.9325   ZZ=             -0.3644
   XY=              0.0000   XZ=              0.0000   YZ=             -0.0000
 Octapole moment (field-independent basis, Debye-Ang**2):
  XXX=              0.0000  YYY=              0.0000  ZZZ=             -1.0631  XYY=             -0.0000
  XXY=             -0.0000  XXZ=             -0.2451  XZZ=              0.0000  YZZ=              0.0000
  YYZ=             -1.4174  XYZ=             -0.0000
 Hexadecapole moment (field-independent basis, Debye-Ang**3):
 XXXX=             -6.7557 YYYY=             -5.8283 ZZZZ=             -7.2439 XXXY=             -0.0000
 XXXZ=             -0.0000 YYYX=              0.0000 YYYZ=              0.0000 ZZZX=             -0.0000
 ZZZY=             -0.0000 XXYY=             -2.4679 XXZZ=             -2.3745 YYZZ=             -1.8896
 XXYZ=              0.0000 YYXZ=              0.0000 ZZXY=             -0.0000
 N-N= 9.168881051408D+00 E-N=-1.989512166198D+02  KE= 7.594468055370D+01
 Symmetry A1   KE= 6.792032410398D+01
 Symmetry A2   KE= 1.908551831091D-20
 Symmetry B1   KE= 4.462030652675D+00
 Symmetry B2   KE= 3.562325797044D+00
 Leave Link  601 at Wed Feb  8 13:53:01 2023, MaxMem=   754974720 cpu:               2.4 elap:               1.1
 (Enter /opt/cluster/programs/g16-c.01/g16/l9999.exe)
 Unable to Open any file for archive entry.
 1\1\GINC-NODE65\SP\RCCSD(T)-FC\Aug-CC-pVTZ\H2O1\BOITTIER\08-Feb-2023\0
 \\#P CCSD(T)/aug-cc-pVTZ scf(maxcycle=200)\\Gaussian input\\0,1\O,0,0.
 ,0.11751,0.\H,0,0.7578497316,-0.4701504329,0.\H,0,-0.7972967856,-0.415
 4054114,0.\\Version=ES64L-G16RevC.01\State=1-A1\HF=-76.0603257\MP2=-76
 .3285584\MP3=-76.3312562\MP4D=-76.3359244\MP4DQ=-76.3318791\MP4SDQ=-76
 .3337528\CCSD=-76.333275\CCSD(T)=-76.3418961\RMSD=3.790e-09\PG=C02V [C
 2(O1),SGV(H2)]\\@
 The archive entry for this job was punched.


 IN THE FIGHT BETWEEN YOU AND THE WORLD, BACK THE WORLD

                                        -- FRANZ KAFKA
 Job cpu time:       0 days  0 hours  0 minutes 43.8 seconds.
 Elapsed time:       0 days  0 hours  0 minutes 18.5 seconds.
 File lengths (MBytes):  RWF=     64 Int=      0 D2E=      0 Chk=      2 Scr=      1
 Normal termination of Gaussian 16 at Wed Feb  8 13:53:05 2023.
