 Entering Gaussian System, Link 0=/opt/cluster/programs/g16-c.01/g16/g16
 Input=/scratch/boittier/jobs/tmp.7312099/gaussian_90_water_hf_adz.com
 Output=/scratch/boittier/jobs/tmp.7312099/gaussian_90_water_hf_adz.out
 Initial command:
 /opt/cluster/programs/g16-c.01/g16/l1.exe "/scratch/boittier/jobs/tmp.7312099/Gau-185372.inp" -scrdir="/scratch/boittier/jobs/tmp.7312099/"
 Entering Link 1 = /opt/cluster/programs/g16-c.01/g16/l1.exe PID=    185378.
  
 Copyright (c) 1988-2019, Gaussian, Inc.  All Rights Reserved.
  
 This is part of the Gaussian(R) 16 program.  It is based on
 the Gaussian(R) 09 system (copyright 2009, Gaussian, Inc.),
 the Gaussian(R) 03 system (copyright 2003, Gaussian, Inc.),
 the Gaussian(R) 98 system (copyright 1998, Gaussian, Inc.),
 the Gaussian(R) 94 system (copyright 1995, Gaussian, Inc.),
 the Gaussian 92(TM) system (copyright 1992, Gaussian, Inc.),
 the Gaussian 90(TM) system (copyright 1990, Gaussian, Inc.),
 the Gaussian 88(TM) system (copyright 1988, Gaussian, Inc.),
 the Gaussian 86(TM) system (copyright 1986, Carnegie Mellon
 University), and the Gaussian 82(TM) system (copyright 1983,
 Carnegie Mellon University). Gaussian is a federally registered
 trademark of Gaussian, Inc.
  
 This software contains proprietary and confidential information,
 including trade secrets, belonging to Gaussian, Inc.
  
 This software is provided under written license and may be
 used, copied, transmitted, or stored only in accord with that
 written license.
  
 The following legend is applicable only to US Government
 contracts under FAR:
  
                    RESTRICTED RIGHTS LEGEND
  
 Use, reproduction and disclosure by the US Government is
 subject to restrictions as set forth in subparagraphs (a)
 and (c) of the Commercial Computer Software - Restricted
 Rights clause in FAR 52.227-19.
  
 Gaussian, Inc.
 340 Quinnipiac St., Bldg. 40, Wallingford CT 06492
  
  
 ---------------------------------------------------------------
 Warning -- This program may not be used in any manner that
 competes with the business of Gaussian, Inc. or will provide
 assistance to any competitor of Gaussian, Inc.  The licensee
 of this program is prohibited from giving any competitor of
 Gaussian, Inc. access to this program.  By using this program,
 the user acknowledges that Gaussian, Inc. is engaged in the
 business of creating and licensing software in the field of
 computational chemistry and represents and warrants to the
 licensee that it is not a competitor of Gaussian, Inc. and that
 it will not use this program in any manner prohibited above.
 ---------------------------------------------------------------
  

 Cite this work as:
 Gaussian 16, Revision C.01,
 M. J. Frisch, G. W. Trucks, H. B. Schlegel, G. E. Scuseria, 
 M. A. Robb, J. R. Cheeseman, G. Scalmani, V. Barone, 
 G. A. Petersson, H. Nakatsuji, X. Li, M. Caricato, A. V. Marenich, 
 J. Bloino, B. G. Janesko, R. Gomperts, B. Mennucci, H. P. Hratchian, 
 J. V. Ortiz, A. F. Izmaylov, J. L. Sonnenberg, D. Williams-Young, 
 F. Ding, F. Lipparini, F. Egidi, J. Goings, B. Peng, A. Petrone, 
 T. Henderson, D. Ranasinghe, V. G. Zakrzewski, J. Gao, N. Rega, 
 G. Zheng, W. Liang, M. Hada, M. Ehara, K. Toyota, R. Fukuda, 
 J. Hasegawa, M. Ishida, T. Nakajima, Y. Honda, O. Kitao, H. Nakai, 
 T. Vreven, K. Throssell, J. A. Montgomery, Jr., J. E. Peralta, 
 F. Ogliaro, M. J. Bearpark, J. J. Heyd, E. N. Brothers, K. N. Kudin, 
 V. N. Staroverov, T. A. Keith, R. Kobayashi, J. Normand, 
 K. Raghavachari, A. P. Rendell, J. C. Burant, S. S. Iyengar, 
 J. Tomasi, M. Cossi, J. M. Millam, M. Klene, C. Adamo, R. Cammi, 
 J. W. Ochterski, R. L. Martin, K. Morokuma, O. Farkas, 
 J. B. Foresman, and D. J. Fox, Gaussian, Inc., Wallingford CT, 2019.
 
 ******************************************
 Gaussian 16:  ES64L-G16RevC.01  3-Jul-2019
                20-Feb-2023 
 ******************************************
 %nproc=4
 Will use up to    4 processors via shared memory.
 %mem=5760MB
 %chk=gaussian_90_water_hf_adz.chk
 -----------------------------------
 #P HF/aug-cc-pVDZ scf(maxcycle=200)
 -----------------------------------
 1/38=1,172=1/1;
 2/12=2,17=6,18=5,40=1/2;
 3/5=16,7=10,11=9,25=1,30=1/1,2,3;
 4//1;
 5/5=2,7=200,38=5/2;
 6/7=2,8=2,9=2,10=2,28=1/1;
 99/5=1,9=1/99;
 Leave Link    1 at Mon Feb 20 10:28:05 2023, MaxMem=   754974720 cpu:               0.2 elap:               0.1
 (Enter /opt/cluster/programs/g16-c.01/g16/l101.exe)
 --------------
 Gaussian input
 --------------
 Symbolic Z-matrix:
 Charge =  0 Multiplicity = 1
 O                     0.        0.11751   0. 
 H                     0.75785  -0.47015   0. 
 H                    -0.75818  -0.46972   0. 
 
 ITRead=  0  0  0
 MicOpt= -1 -1 -1
 NAtoms=      3 NQM=        3 NQMF=       0 NMMI=      0 NMMIF=      0
                NMic=       0 NMicF=      0.
                    Isotopes and Nuclear Properties:
 (Nuclear quadrupole moments (NQMom) in fm**2, nuclear magnetic moments (NMagM)
  in nuclear magnetons)

  Atom         1           2           3
 IAtWgt=          16           1           1
 AtmWgt=  15.9949146   1.0078250   1.0078250
 NucSpn=           0           1           1
 AtZEff=  -0.0000000  -0.0000000  -0.0000000
 NQMom=    0.0000000   0.0000000   0.0000000
 NMagM=    0.0000000   2.7928460   2.7928460
 AtZNuc=   8.0000000   1.0000000   1.0000000
 Leave Link  101 at Mon Feb 20 10:28:05 2023, MaxMem=   754974720 cpu:               0.8 elap:               0.4
 (Enter /opt/cluster/programs/g16-c.01/g16/l202.exe)
                          Input orientation:                          
 ---------------------------------------------------------------------
 Center     Atomic      Atomic             Coordinates (Angstroms)
 Number     Number       Type             X           Y           Z
 ---------------------------------------------------------------------
      1          8           0        0.000000    0.117510    0.000000
      2          1           0        0.757850   -0.470150    0.000000
      3          1           0       -0.758180   -0.469724    0.000000
 ---------------------------------------------------------------------
                    Distance matrix (angstroms):
                    1          2          3
     1  O    0.000000
     2  H    0.959000   0.000000
     3  H    0.959000   1.516030   0.000000
 Stoichiometry    H2O
 Framework group  C2V[C2(O),SGV(H2)]
 Deg. of freedom     2
 Full point group                 C2V     NOp   4
 Largest Abelian subgroup         C2V     NOp   4
 Largest concise Abelian subgroup C2      NOp   2
                         Standard orientation:                         
 ---------------------------------------------------------------------
 Center     Atomic      Atomic             Coordinates (Angstroms)
 Number     Number       Type             X           Y           Z
 ---------------------------------------------------------------------
      1          8           0        0.000000    0.000000    0.117489
      2          1           0        0.000000    0.758015   -0.469958
      3          1           0       -0.000000   -0.758015   -0.469958
 ---------------------------------------------------------------------
 Rotational constants (GHZ):         818.1064686         436.3614765         284.5749451
 Leave Link  202 at Mon Feb 20 10:28:05 2023, MaxMem=   754974720 cpu:               0.1 elap:               0.1
 (Enter /opt/cluster/programs/g16-c.01/g16/l301.exe)
 Standard basis: Aug-CC-pVDZ (5D, 7F)
 Ernie: Thresh=  0.10000D-02 Tol=  0.10000D-05 Strict=F.
 Ernie:  2 primitive shells out of 39 were deleted.
 There are    20 symmetry adapted cartesian basis functions of A1  symmetry.
 There are     4 symmetry adapted cartesian basis functions of A2  symmetry.
 There are     7 symmetry adapted cartesian basis functions of B1  symmetry.
 There are    12 symmetry adapted cartesian basis functions of B2  symmetry.
 There are    18 symmetry adapted basis functions of A1  symmetry.
 There are     4 symmetry adapted basis functions of A2  symmetry.
 There are     7 symmetry adapted basis functions of B1  symmetry.
 There are    12 symmetry adapted basis functions of B2  symmetry.
    41 basis functions,    65 primitive gaussians,    43 cartesian basis functions
     5 alpha electrons        5 beta electrons
       nuclear repulsion energy         9.1778714200 Hartrees.
 IExCor=    0 DFT=F Ex=HF Corr=None ExCW=0 ScaHFX=  1.000000
 ScaDFX=  1.000000  1.000000  1.000000  1.000000 ScalE2=  1.000000  1.000000
 IRadAn=      5 IRanWt=     -1 IRanGd=            0 ICorTp=0 IEmpDi=  4
 NAtoms=    3 NActive=    3 NUniq=    2 SFac= 2.25D+00 NAtFMM=   60 NAOKFM=F Big=F
 Integral buffers will be    131072 words long.
 Raffenetti 1 integral format.
 Two-electron integral symmetry is turned on.
 Leave Link  301 at Mon Feb 20 10:28:05 2023, MaxMem=   754974720 cpu:               0.1 elap:               0.1
 (Enter /opt/cluster/programs/g16-c.01/g16/l302.exe)
 NPDir=0 NMtPBC=     1 NCelOv=     1 NCel=       1 NClECP=     1 NCelD=      1
         NCelK=      1 NCelE2=     1 NClLst=     1 CellRange=     0.0.
 One-electron integrals computed using PRISM.
 One-electron integral symmetry used in STVInt
 NBasis=    41 RedAO= T EigKep=  2.68D-03  NBF=    18     4     7    12
 NBsUse=    41 1.00D-06 EigRej= -1.00D+00 NBFU=    18     4     7    12
 Leave Link  302 at Mon Feb 20 10:28:06 2023, MaxMem=   754974720 cpu:               1.5 elap:               0.7
 (Enter /opt/cluster/programs/g16-c.01/g16/l303.exe)
 DipDrv:  MaxL=1.
 Leave Link  303 at Mon Feb 20 10:28:06 2023, MaxMem=   754974720 cpu:               0.5 elap:               0.3
 (Enter /opt/cluster/programs/g16-c.01/g16/l401.exe)
 ExpMin= 2.97D-02 ExpMax= 1.17D+04 ExpMxC= 4.01D+02 IAcc=3 IRadAn=         5 AccDes= 0.00D+00
 Harris functional with IExCor=  205 and IRadAn=       5 diagonalized for initial guess.
 HarFok:  IExCor=  205 AccDes= 0.00D+00 IRadAn=         5 IDoV= 1 UseB2=F ITyADJ=14
 ICtDFT=  3500011 ScaDFX=  1.000000  1.000000  1.000000  1.000000
 FoFCou: FMM=F IPFlag=           0 FMFlag=      100000 FMFlg1=           0
         NFxFlg=           0 DoJE=T BraDBF=F KetDBF=T FulRan=T
         wScrn=  0.000000 ICntrl=       500 IOpCl=  0 I1Cent=   200000004 NGrid=           0
         NMat0=    1 NMatS0=      1 NMatT0=    0 NMatD0=    1 NMtDS0=    0 NMtDT0=    0
 Petite list used in FoFCou.
 Harris En= -76.1250819923015    
 JPrj=0 DoOrth=F DoCkMO=F.
 Initial guess orbital symmetries:
       Occupied  (A1) (A1) (B2) (A1) (B1)
       Virtual   (A1) (B2) (A1) (B1) (A1) (B2) (B2) (A1) (A2) (A1)
                 (B1) (B2) (A1) (B2) (B2) (A1) (B1) (A1) (A2) (A1)
                 (B1) (B2) (A1) (B2) (A2) (B1) (B2) (A1) (A1) (B2)
                 (A1) (B1) (A1) (A2) (A1) (B2)
 The electronic state of the initial guess is 1-A1.
 Leave Link  401 at Mon Feb 20 10:28:07 2023, MaxMem=   754974720 cpu:               2.2 elap:               1.1
 (Enter /opt/cluster/programs/g16-c.01/g16/l502.exe)
 Keep R1 ints in memory in symmetry-blocked form, NReq=1211502.
 FoFCou: FMM=F IPFlag=           0 FMFlag=           0 FMFlg1=           0
         NFxFlg=           0 DoJE=F BraDBF=F KetDBF=F FulRan=T
         wScrn=  0.000000 ICntrl=       600 IOpCl=  0 I1Cent=           0 NGrid=           0
         NMat0=    1 NMatS0=    861 NMatT0=    0 NMatD0=    1 NMtDS0=    0 NMtDT0=    0
 Petite list used in FoFCou.
 Closed shell SCF:
 Using DIIS extrapolation, IDIIS=  1040.
 NGot=   754974720 LenX=   754868251 LenY=   754865961
 Requested convergence on RMS density matrix=1.00D-08 within 200 cycles.
 Requested convergence on MAX density matrix=1.00D-06.
 Requested convergence on             energy=1.00D-06.
 No special actions if energy rises.

 Cycle   1  Pass 1  IDiag  1:
 E= -75.9654196083097    
 DIIS: error= 5.07D-02 at cycle   1 NSaved=   1.
 NSaved= 1 IEnMin= 1 EnMin= -75.9654196083097     IErMin= 1 ErrMin= 5.07D-02
 ErrMax= 5.07D-02  0.00D+00 EMaxC= 1.00D-01 BMatC= 1.16D-01 BMatP= 1.16D-01
 IDIUse=3 WtCom= 4.93D-01 WtEn= 5.07D-01
 Coeff-Com:  0.100D+01
 Coeff-En:   0.100D+01
 Coeff:      0.100D+01
 Gap=     0.459 Goal=   None    Shift=    0.000
 GapD=    0.459 DampG=2.000 DampE=0.500 DampFc=1.0000 IDamp=-1.
 RMSDP=6.25D-03 MaxDP=1.17D-01              OVMax= 1.18D-01

 Cycle   2  Pass 1  IDiag  1:
 E= -76.0096112539087     Delta-E=       -0.044191645599 Rises=F Damp=F
 DIIS: error= 3.97D-02 at cycle   2 NSaved=   2.
 NSaved= 2 IEnMin= 2 EnMin= -76.0096112539087     IErMin= 2 ErrMin= 3.97D-02
 ErrMax= 3.97D-02  0.00D+00 EMaxC= 1.00D-01 BMatC= 4.49D-02 BMatP= 1.16D-01
 IDIUse=3 WtCom= 6.03D-01 WtEn= 3.97D-01
 Coeff-Com:  0.373D+00 0.627D+00
 Coeff-En:   0.209D+00 0.791D+00
 Coeff:      0.308D+00 0.692D+00
 Gap=     0.562 Goal=   None    Shift=    0.000
 RMSDP=2.92D-03 MaxDP=5.41D-02 DE=-4.42D-02 OVMax= 5.84D-02

 Cycle   3  Pass 1  IDiag  1:
 E= -76.0404385845785     Delta-E=       -0.030827330670 Rises=F Damp=F
 DIIS: error= 4.65D-03 at cycle   3 NSaved=   3.
 NSaved= 3 IEnMin= 3 EnMin= -76.0404385845785     IErMin= 3 ErrMin= 4.65D-03
 ErrMax= 4.65D-03  0.00D+00 EMaxC= 1.00D-01 BMatC= 1.14D-03 BMatP= 4.49D-02
 IDIUse=3 WtCom= 9.54D-01 WtEn= 4.65D-02
 Coeff-Com: -0.377D-01 0.929D-01 0.945D+00
 Coeff-En:   0.000D+00 0.000D+00 0.100D+01
 Coeff:     -0.359D-01 0.886D-01 0.947D+00
 Gap=     0.543 Goal=   None    Shift=    0.000
 RMSDP=4.67D-04 MaxDP=8.14D-03 DE=-3.08D-02 OVMax= 9.23D-03

 Cycle   4  Pass 1  IDiag  1:
 E= -76.0413005344625     Delta-E=       -0.000861949884 Rises=F Damp=F
 DIIS: error= 6.26D-04 at cycle   4 NSaved=   4.
 NSaved= 4 IEnMin= 4 EnMin= -76.0413005344625     IErMin= 4 ErrMin= 6.26D-04
 ErrMax= 6.26D-04  0.00D+00 EMaxC= 1.00D-01 BMatC= 7.06D-06 BMatP= 1.14D-03
 IDIUse=3 WtCom= 9.94D-01 WtEn= 6.26D-03
 Coeff-Com:  0.916D-02-0.435D-01-0.334D+00 0.137D+01
 Coeff-En:   0.000D+00 0.000D+00 0.000D+00 0.100D+01
 Coeff:      0.910D-02-0.432D-01-0.332D+00 0.137D+01
 Gap=     0.544 Goal=   None    Shift=    0.000
 RMSDP=1.10D-04 MaxDP=1.12D-03 DE=-8.62D-04 OVMax= 2.13D-03

 Cycle   5  Pass 1  IDiag  1:
 E= -76.0413177937916     Delta-E=       -0.000017259329 Rises=F Damp=F
 DIIS: error= 1.67D-04 at cycle   5 NSaved=   5.
 NSaved= 5 IEnMin= 5 EnMin= -76.0413177937916     IErMin= 5 ErrMin= 1.67D-04
 ErrMax= 1.67D-04  0.00D+00 EMaxC= 1.00D-01 BMatC= 2.83D-07 BMatP= 7.06D-06
 IDIUse=3 WtCom= 9.98D-01 WtEn= 1.67D-03
 Coeff-Com: -0.464D-03 0.488D-02 0.354D-01-0.309D+00 0.127D+01
 Coeff-En:   0.000D+00 0.000D+00 0.000D+00 0.000D+00 0.100D+01
 Coeff:     -0.464D-03 0.487D-02 0.353D-01-0.308D+00 0.127D+01
 Gap=     0.545 Goal=   None    Shift=    0.000
 RMSDP=2.48D-05 MaxDP=3.70D-04 DE=-1.73D-05 OVMax= 5.08D-04

 Cycle   6  Pass 1  IDiag  1:
 E= -76.0413186428270     Delta-E=       -0.000000849035 Rises=F Damp=F
 DIIS: error= 3.04D-05 at cycle   6 NSaved=   6.
 NSaved= 6 IEnMin= 6 EnMin= -76.0413186428270     IErMin= 6 ErrMin= 3.04D-05
 ErrMax= 3.04D-05  0.00D+00 EMaxC= 1.00D-01 BMatC= 1.03D-08 BMatP= 2.83D-07
 IDIUse=1 WtCom= 1.00D+00 WtEn= 0.00D+00
 Coeff-Com: -0.311D-03 0.115D-02 0.881D-02-0.134D-01-0.218D+00 0.122D+01
 Coeff:     -0.311D-03 0.115D-02 0.881D-02-0.134D-01-0.218D+00 0.122D+01
 Gap=     0.545 Goal=   None    Shift=    0.000
 RMSDP=4.05D-06 MaxDP=8.40D-05 DE=-8.49D-07 OVMax= 1.10D-04

 Cycle   7  Pass 1  IDiag  1:
 E= -76.0413186743561     Delta-E=       -0.000000031529 Rises=F Damp=F
 DIIS: error= 5.97D-06 at cycle   7 NSaved=   7.
 NSaved= 7 IEnMin= 7 EnMin= -76.0413186743561     IErMin= 7 ErrMin= 5.97D-06
 ErrMax= 5.97D-06  0.00D+00 EMaxC= 1.00D-01 BMatC= 5.21D-10 BMatP= 1.03D-08
 IDIUse=1 WtCom= 1.00D+00 WtEn= 0.00D+00
 Coeff-Com:  0.129D-03-0.644D-03-0.507D-02 0.226D-01 0.341D-02-0.368D+00
 Coeff-Com:  0.135D+01
 Coeff:      0.129D-03-0.644D-03-0.507D-02 0.226D-01 0.341D-02-0.368D+00
 Coeff:      0.135D+01
 Gap=     0.545 Goal=   None    Shift=    0.000
 RMSDP=8.38D-07 MaxDP=1.59D-05 DE=-3.15D-08 OVMax= 2.34D-05

 Cycle   8  Pass 1  IDiag  1:
 E= -76.0413186756789     Delta-E=       -0.000000001323 Rises=F Damp=F
 DIIS: error= 6.78D-07 at cycle   8 NSaved=   8.
 NSaved= 8 IEnMin= 8 EnMin= -76.0413186756789     IErMin= 8 ErrMin= 6.78D-07
 ErrMax= 6.78D-07  0.00D+00 EMaxC= 1.00D-01 BMatC= 1.32D-11 BMatP= 5.21D-10
 IDIUse=1 WtCom= 1.00D+00 WtEn= 0.00D+00
 Coeff-Com: -0.262D-04 0.144D-03 0.118D-02-0.636D-02 0.639D-02 0.709D-01
 Coeff-Com: -0.414D+00 0.134D+01
 Coeff:     -0.262D-04 0.144D-03 0.118D-02-0.636D-02 0.639D-02 0.709D-01
 Coeff:     -0.414D+00 0.134D+01
 Gap=     0.545 Goal=   None    Shift=    0.000
 RMSDP=1.88D-07 MaxDP=2.45D-06 DE=-1.32D-09 OVMax= 3.50D-06

 Cycle   9  Pass 1  IDiag  1:
 E= -76.0413186757123     Delta-E=       -0.000000000033 Rises=F Damp=F
 DIIS: error= 7.96D-08 at cycle   9 NSaved=   9.
 NSaved= 9 IEnMin= 9 EnMin= -76.0413186757123     IErMin= 9 ErrMin= 7.96D-08
 ErrMax= 7.96D-08  0.00D+00 EMaxC= 1.00D-01 BMatC= 2.39D-13 BMatP= 1.32D-11
 IDIUse=1 WtCom= 1.00D+00 WtEn= 0.00D+00
 Coeff-Com:  0.337D-05-0.197D-04-0.175D-03 0.110D-02-0.166D-02-0.102D-01
 Coeff-Com:  0.799D-01-0.352D+00 0.128D+01
 Coeff:      0.337D-05-0.197D-04-0.175D-03 0.110D-02-0.166D-02-0.102D-01
 Coeff:      0.799D-01-0.352D+00 0.128D+01
 Gap=     0.545 Goal=   None    Shift=    0.000
 RMSDP=2.48D-08 MaxDP=2.54D-07 DE=-3.34D-11 OVMax= 4.00D-07

 Cycle  10  Pass 1  IDiag  1:
 E= -76.0413186757129     Delta-E=       -0.000000000001 Rises=F Damp=F
 DIIS: error= 2.44D-08 at cycle  10 NSaved=  10.
 NSaved=10 IEnMin=10 EnMin= -76.0413186757129     IErMin=10 ErrMin= 2.44D-08
 ErrMax= 2.44D-08  0.00D+00 EMaxC= 1.00D-01 BMatC= 1.25D-14 BMatP= 2.39D-13
 IDIUse=1 WtCom= 1.00D+00 WtEn= 0.00D+00
 Coeff-Com: -0.231D-06 0.174D-05 0.215D-04-0.194D-03 0.497D-03 0.849D-03
 Coeff-Com: -0.139D-01 0.775D-01-0.463D+00 0.140D+01
 Coeff:     -0.231D-06 0.174D-05 0.215D-04-0.194D-03 0.497D-03 0.849D-03
 Coeff:     -0.139D-01 0.775D-01-0.463D+00 0.140D+01
 Gap=     0.545 Goal=   None    Shift=    0.000
 RMSDP=5.80D-09 MaxDP=5.54D-08 DE=-6.25D-13 OVMax= 1.28D-07

 SCF Done:  E(RHF) =  -76.0413186757     A.U. after   10 cycles
            NFock= 10  Conv=0.58D-08     -V/T= 2.0016
 KE= 7.592041703050D+01 PE=-1.988661900327D+02 EE= 3.772658290651D+01
 Leave Link  502 at Mon Feb 20 10:28:11 2023, MaxMem=   754974720 cpu:               6.3 elap:               3.1
 (Enter /opt/cluster/programs/g16-c.01/g16/l601.exe)
 Copying SCF densities to generalized density rwf, IOpCl= 0 IROHF=0.

 **********************************************************************

            Population analysis using the SCF Density.

 **********************************************************************

 Orbital symmetries:
       Occupied  (A1) (A1) (B2) (A1) (B1)
       Virtual   (A1) (B2) (A1) (B1) (A1) (B2) (B2) (A1) (A2) (A1)
                 (B1) (B2) (A1) (B2) (B2) (A1) (B1) (A1) (A2) (A1)
                 (B2) (B1) (A1) (B2) (A2) (B1) (A1) (B2) (A1) (B2)
                 (A1) (B1) (A1) (A2) (A1) (B2)
 The electronic state is 1-A1.
 Alpha  occ. eigenvalues --  -20.57759  -1.35577  -0.71820  -0.58543  -0.50931
 Alpha virt. eigenvalues --    0.03540   0.05792   0.17401   0.19677   0.22253
 Alpha virt. eigenvalues --    0.23151   0.29027   0.33132   0.38571   0.40373
 Alpha virt. eigenvalues --    0.43347   0.53901   0.64820   0.65816   0.81091
 Alpha virt. eigenvalues --    0.92946   1.10119   1.11542   1.14874   1.30700
 Alpha virt. eigenvalues --    1.46648   1.48260   1.58331   2.00248   2.01044
 Alpha virt. eigenvalues --    2.10816   2.36697   2.47935   2.62465   2.71454
 Alpha virt. eigenvalues --    2.96659   3.67296   3.69008   3.70266   4.02472
 Alpha virt. eigenvalues --    4.30559
          Condensed to atoms (all electrons):
               1          2          3
     1  O    7.628119   0.336676   0.336676
     2  H    0.336676   0.547929  -0.035340
     3  H    0.336676  -0.035340   0.547929
 Mulliken charges:
               1
     1  O   -0.301471
     2  H    0.150736
     3  H    0.150736
 Sum of Mulliken charges =  -0.00000
 Mulliken charges with hydrogens summed into heavy atoms:
               1
     1  O   -0.000000
 Electronic spatial extent (au):  <R**2>=             19.5577
 Charge=             -0.0000 electrons
 Dipole moment (field-independent basis, Debye):
    X=             -0.0000    Y=              0.0000    Z=             -2.0011  Tot=              2.0011
 Quadrupole moment (field-independent basis, Debye-Ang):
   XX=             -7.5933   YY=             -4.2775   ZZ=             -6.2632
   XY=              0.0000   XZ=              0.0000   YZ=             -0.0000
 Traceless Quadrupole moment (field-independent basis, Debye-Ang):
   XX=             -1.5486   YY=              1.7672   ZZ=             -0.2186
   XY=              0.0000   XZ=              0.0000   YZ=             -0.0000
 Octapole moment (field-independent basis, Debye-Ang**2):
  XXX=              0.0000  YYY=              0.0000  ZZZ=             -1.1989  XYY=             -0.0000
  XXY=              0.0000  XXZ=             -0.2949  XZZ=              0.0000  YZZ=              0.0000
  YYZ=             -1.3938  XYZ=             -0.0000
 Hexadecapole moment (field-independent basis, Debye-Ang**3):
 XXXX=             -6.8207 YYYY=             -6.0218 ZZZZ=             -7.3309 XXXY=             -0.0000
 XXXZ=             -0.0000 YYYX=             -0.0000 YYYZ=             -0.0000 ZZZX=             -0.0000
 ZZZY=              0.0000 XXYY=             -2.4590 XXZZ=             -2.4102 YYZZ=             -1.9013
 XXYZ=              0.0000 YYXZ=              0.0000 ZZXY=             -0.0000
 N-N= 9.177871420021D+00 E-N=-1.988661902566D+02  KE= 7.592041703050D+01
 Symmetry A1   KE= 6.792008330069D+01
 Symmetry A2   KE= 8.882232834928D-34
 Symmetry B1   KE= 4.444864192900D+00
 Symmetry B2   KE= 3.555469536909D+00
 No NMR shielding tensors so no spin-rotation constants.
 Leave Link  601 at Mon Feb 20 10:28:12 2023, MaxMem=   754974720 cpu:               2.0 elap:               1.0
 (Enter /opt/cluster/programs/g16-c.01/g16/l9999.exe)
 Unable to Open any file for archive entry.
 1\1\GINC-NODE105\SP\RHF\Aug-CC-pVDZ\H2O1\BOITTIER\20-Feb-2023\0\\#P HF
 /aug-cc-pVDZ scf(maxcycle=200)\\Gaussian input\\0,1\O,0,0.,0.11751,0.\
 H,0,0.7578497316,-0.4701504329,0.\H,0,-0.7581803108,-0.4697238685,0.\\
 Version=ES64L-G16RevC.01\State=1-A1\HF=-76.0413187\RMSD=5.805e-09\Dipo
 le=-0.0002215,-0.7872821,0.\Quadrupole=1.3138746,-0.1624945,-1.15138,-
 0.0004154,0.,0.\PG=C02V [C2(O1),SGV(H2)]\\@
 The archive entry for this job was punched.


 EVANS BOLDLY PUT 50 ATM. OF ETHYLENE IN A CELL WITH 25 ATM. OF OXYGEN.
 THE APPARATUS SUBSEQUENTLY BLEW UP, BUT LUCKILY NOT BEFORE HE
 OBTAINED THE SPECTRA SHOWN IN FIGURE 8.
 A.J.MERER AND R.S.MULLIKEN, CHEM.REV. 69, 645 (1969)
 Job cpu time:       0 days  0 hours  0 minutes 14.0 seconds.
 Elapsed time:       0 days  0 hours  0 minutes  7.0 seconds.
 File lengths (MBytes):  RWF=      6 Int=      0 D2E=      0 Chk=      1 Scr=      1
 Normal termination of Gaussian 16 at Mon Feb 20 10:28:12 2023.
