 Entering Gaussian System, Link 0=/opt/cluster/programs/g16-c.01/g16/g16
 Input=/scratch/boittier/jobs/tmp.7312125/gaussian_116_water_hf_adz.com
 Output=/scratch/boittier/jobs/tmp.7312125/gaussian_116_water_hf_adz.out
 Initial command:
 /opt/cluster/programs/g16-c.01/g16/l1.exe "/scratch/boittier/jobs/tmp.7312125/Gau-66599.inp" -scrdir="/scratch/boittier/jobs/tmp.7312125/"
 Entering Link 1 = /opt/cluster/programs/g16-c.01/g16/l1.exe PID=     66600.
  
 Copyright (c) 1988-2019, Gaussian, Inc.  All Rights Reserved.
  
 This is part of the Gaussian(R) 16 program.  It is based on
 the Gaussian(R) 09 system (copyright 2009, Gaussian, Inc.),
 the Gaussian(R) 03 system (copyright 2003, Gaussian, Inc.),
 the Gaussian(R) 98 system (copyright 1998, Gaussian, Inc.),
 the Gaussian(R) 94 system (copyright 1995, Gaussian, Inc.),
 the Gaussian 92(TM) system (copyright 1992, Gaussian, Inc.),
 the Gaussian 90(TM) system (copyright 1990, Gaussian, Inc.),
 the Gaussian 88(TM) system (copyright 1988, Gaussian, Inc.),
 the Gaussian 86(TM) system (copyright 1986, Carnegie Mellon
 University), and the Gaussian 82(TM) system (copyright 1983,
 Carnegie Mellon University). Gaussian is a federally registered
 trademark of Gaussian, Inc.
  
 This software contains proprietary and confidential information,
 including trade secrets, belonging to Gaussian, Inc.
  
 This software is provided under written license and may be
 used, copied, transmitted, or stored only in accord with that
 written license.
  
 The following legend is applicable only to US Government
 contracts under FAR:
  
                    RESTRICTED RIGHTS LEGEND
  
 Use, reproduction and disclosure by the US Government is
 subject to restrictions as set forth in subparagraphs (a)
 and (c) of the Commercial Computer Software - Restricted
 Rights clause in FAR 52.227-19.
  
 Gaussian, Inc.
 340 Quinnipiac St., Bldg. 40, Wallingford CT 06492
  
  
 ---------------------------------------------------------------
 Warning -- This program may not be used in any manner that
 competes with the business of Gaussian, Inc. or will provide
 assistance to any competitor of Gaussian, Inc.  The licensee
 of this program is prohibited from giving any competitor of
 Gaussian, Inc. access to this program.  By using this program,
 the user acknowledges that Gaussian, Inc. is engaged in the
 business of creating and licensing software in the field of
 computational chemistry and represents and warrants to the
 licensee that it is not a competitor of Gaussian, Inc. and that
 it will not use this program in any manner prohibited above.
 ---------------------------------------------------------------
  

 Cite this work as:
 Gaussian 16, Revision C.01,
 M. J. Frisch, G. W. Trucks, H. B. Schlegel, G. E. Scuseria, 
 M. A. Robb, J. R. Cheeseman, G. Scalmani, V. Barone, 
 G. A. Petersson, H. Nakatsuji, X. Li, M. Caricato, A. V. Marenich, 
 J. Bloino, B. G. Janesko, R. Gomperts, B. Mennucci, H. P. Hratchian, 
 J. V. Ortiz, A. F. Izmaylov, J. L. Sonnenberg, D. Williams-Young, 
 F. Ding, F. Lipparini, F. Egidi, J. Goings, B. Peng, A. Petrone, 
 T. Henderson, D. Ranasinghe, V. G. Zakrzewski, J. Gao, N. Rega, 
 G. Zheng, W. Liang, M. Hada, M. Ehara, K. Toyota, R. Fukuda, 
 J. Hasegawa, M. Ishida, T. Nakajima, Y. Honda, O. Kitao, H. Nakai, 
 T. Vreven, K. Throssell, J. A. Montgomery, Jr., J. E. Peralta, 
 F. Ogliaro, M. J. Bearpark, J. J. Heyd, E. N. Brothers, K. N. Kudin, 
 V. N. Staroverov, T. A. Keith, R. Kobayashi, J. Normand, 
 K. Raghavachari, A. P. Rendell, J. C. Burant, S. S. Iyengar, 
 J. Tomasi, M. Cossi, J. M. Millam, M. Klene, C. Adamo, R. Cammi, 
 J. W. Ochterski, R. L. Martin, K. Morokuma, O. Farkas, 
 J. B. Foresman, and D. J. Fox, Gaussian, Inc., Wallingford CT, 2019.
 
 ******************************************
 Gaussian 16:  ES64L-G16RevC.01  3-Jul-2019
                20-Feb-2023 
 ******************************************
 %nproc=4
 Will use up to    4 processors via shared memory.
 %mem=5760MB
 %chk=gaussian_116_water_hf_adz.chk
 -----------------------------------
 #P HF/aug-cc-pVDZ scf(maxcycle=200)
 -----------------------------------
 1/38=1,172=1/1;
 2/12=2,17=6,18=5,40=1/2;
 3/5=16,7=10,11=9,25=1,30=1/1,2,3;
 4//1;
 5/5=2,7=200,38=5/2;
 6/7=2,8=2,9=2,10=2,28=1/1;
 99/5=1,9=1/99;
 Leave Link    1 at Mon Feb 20 10:28:35 2023, MaxMem=   754974720 cpu:               0.1 elap:               0.0
 (Enter /opt/cluster/programs/g16-c.01/g16/l101.exe)
 --------------
 Gaussian input
 --------------
 Symbolic Z-matrix:
 Charge =  0 Multiplicity = 1
 O                     0.        0.11751   0. 
 H                     0.75785  -0.47015   0. 
 H                    -0.90874  -0.32099   0. 
 
 ITRead=  0  0  0
 MicOpt= -1 -1 -1
 NAtoms=      3 NQM=        3 NQMF=       0 NMMI=      0 NMMIF=      0
                NMic=       0 NMicF=      0.
                    Isotopes and Nuclear Properties:
 (Nuclear quadrupole moments (NQMom) in fm**2, nuclear magnetic moments (NMagM)
  in nuclear magnetons)

  Atom         1           2           3
 IAtWgt=          16           1           1
 AtmWgt=  15.9949146   1.0078250   1.0078250
 NucSpn=           0           1           1
 AtZEff=  -0.0000000  -0.0000000  -0.0000000
 NQMom=    0.0000000   0.0000000   0.0000000
 NMagM=    0.0000000   2.7928460   2.7928460
 AtZNuc=   8.0000000   1.0000000   1.0000000
 Leave Link  101 at Mon Feb 20 10:28:35 2023, MaxMem=   754974720 cpu:               0.8 elap:               0.2
 (Enter /opt/cluster/programs/g16-c.01/g16/l202.exe)
                          Input orientation:                          
 ---------------------------------------------------------------------
 Center     Atomic      Atomic             Coordinates (Angstroms)
 Number     Number       Type             X           Y           Z
 ---------------------------------------------------------------------
      1          8           0        0.000000    0.117510    0.000000
      2          1           0        0.757850   -0.470150    0.000000
      3          1           0       -0.908737   -0.320986    0.000000
 ---------------------------------------------------------------------
                    Distance matrix (angstroms):
                    1          2          3
     1  O    0.000000
     2  H    0.959000   0.000000
     3  H    1.009000   1.673248   0.000000
 Stoichiometry    H2O
 Framework group  CS[SG(H2O)]
 Deg. of freedom     3
 Full point group                 CS      NOp   2
 Largest Abelian subgroup         CS      NOp   2
 Largest concise Abelian subgroup C1      NOp   1
                         Standard orientation:                         
 ---------------------------------------------------------------------
 Center     Atomic      Atomic             Coordinates (Angstroms)
 Number     Number       Type             X           Y           Z
 ---------------------------------------------------------------------
      1          8           0        0.000000    0.103719    0.000000
      2          1           0        0.835278   -0.367440    0.000000
      3          1           0       -0.835278   -0.462312    0.000000
 ---------------------------------------------------------------------
 Rotational constants (GHZ):        1054.8959364         357.6189123         267.0773604
 Leave Link  202 at Mon Feb 20 10:28:35 2023, MaxMem=   754974720 cpu:               0.0 elap:               0.0
 (Enter /opt/cluster/programs/g16-c.01/g16/l301.exe)
 Standard basis: Aug-CC-pVDZ (5D, 7F)
 Ernie: Thresh=  0.10000D-02 Tol=  0.10000D-05 Strict=F.
 Ernie:  2 primitive shells out of 39 were deleted.
 There are    32 symmetry adapted cartesian basis functions of A'  symmetry.
 There are    11 symmetry adapted cartesian basis functions of A"  symmetry.
 There are    30 symmetry adapted basis functions of A'  symmetry.
 There are    11 symmetry adapted basis functions of A"  symmetry.
    41 basis functions,    65 primitive gaussians,    43 cartesian basis functions
     5 alpha electrons        5 beta electrons
       nuclear repulsion energy         8.9263226376 Hartrees.
 IExCor=    0 DFT=F Ex=HF Corr=None ExCW=0 ScaHFX=  1.000000
 ScaDFX=  1.000000  1.000000  1.000000  1.000000 ScalE2=  1.000000  1.000000
 IRadAn=      5 IRanWt=     -1 IRanGd=            0 ICorTp=0 IEmpDi=  4
 NAtoms=    3 NActive=    3 NUniq=    3 SFac= 1.00D+00 NAtFMM=   60 NAOKFM=F Big=F
 Integral buffers will be    131072 words long.
 Raffenetti 1 integral format.
 Two-electron integral symmetry is turned on.
 Leave Link  301 at Mon Feb 20 10:28:35 2023, MaxMem=   754974720 cpu:               0.2 elap:               0.0
 (Enter /opt/cluster/programs/g16-c.01/g16/l302.exe)
 NPDir=0 NMtPBC=     1 NCelOv=     1 NCel=       1 NClECP=     1 NCelD=      1
         NCelK=      1 NCelE2=     1 NClLst=     1 CellRange=     0.0.
 One-electron integrals computed using PRISM.
 One-electron integral symmetry used in STVInt
 NBasis=    41 RedAO= T EigKep=  3.04D-03  NBF=    30    11
 NBsUse=    41 1.00D-06 EigRej= -1.00D+00 NBFU=    30    11
 Leave Link  302 at Mon Feb 20 10:28:35 2023, MaxMem=   754974720 cpu:               0.4 elap:               0.1
 (Enter /opt/cluster/programs/g16-c.01/g16/l303.exe)
 DipDrv:  MaxL=1.
 Leave Link  303 at Mon Feb 20 10:28:35 2023, MaxMem=   754974720 cpu:               0.1 elap:               0.0
 (Enter /opt/cluster/programs/g16-c.01/g16/l401.exe)
 ExpMin= 2.97D-02 ExpMax= 1.17D+04 ExpMxC= 4.01D+02 IAcc=3 IRadAn=         5 AccDes= 0.00D+00
 Harris functional with IExCor=  205 and IRadAn=       5 diagonalized for initial guess.
 HarFok:  IExCor=  205 AccDes= 0.00D+00 IRadAn=         5 IDoV= 1 UseB2=F ITyADJ=14
 ICtDFT=  3500011 ScaDFX=  1.000000  1.000000  1.000000  1.000000
 FoFCou: FMM=F IPFlag=           0 FMFlag=      100000 FMFlg1=           0
         NFxFlg=           0 DoJE=T BraDBF=F KetDBF=T FulRan=T
         wScrn=  0.000000 ICntrl=       500 IOpCl=  0 I1Cent=   200000004 NGrid=           0
         NMat0=    1 NMatS0=      1 NMatT0=    0 NMatD0=    1 NMtDS0=    0 NMtDT0=    0
 Petite list used in FoFCou.
 Harris En= -76.1207515646659    
 JPrj=0 DoOrth=F DoCkMO=F.
 Initial guess orbital symmetries:
       Occupied  (A') (A') (A') (A') (A")
       Virtual   (A') (A') (A') (A") (A') (A') (A') (A') (A") (A')
                 (A") (A') (A') (A') (A') (A') (A") (A') (A") (A')
                 (A") (A') (A') (A') (A") (A") (A') (A') (A') (A')
                 (A') (A") (A') (A") (A') (A')
 The electronic state of the initial guess is 1-A'.
 Leave Link  401 at Mon Feb 20 10:28:35 2023, MaxMem=   754974720 cpu:               0.6 elap:               0.1
 (Enter /opt/cluster/programs/g16-c.01/g16/l502.exe)
 Keep R1 ints in memory in symmetry-blocked form, NReq=1210668.
 FoFCou: FMM=F IPFlag=           0 FMFlag=           0 FMFlg1=           0
         NFxFlg=           0 DoJE=F BraDBF=F KetDBF=F FulRan=T
         wScrn=  0.000000 ICntrl=       600 IOpCl=  0 I1Cent=           0 NGrid=           0
         NMat0=    1 NMatS0=    861 NMatT0=    0 NMatD0=    1 NMtDS0=    0 NMtDT0=    0
 Petite list used in FoFCou.
 Closed shell SCF:
 Using DIIS extrapolation, IDIIS=  1040.
 NGot=   754974720 LenX=   754771907 LenY=   754769617
 Requested convergence on RMS density matrix=1.00D-08 within 200 cycles.
 Requested convergence on MAX density matrix=1.00D-06.
 Requested convergence on             energy=1.00D-06.
 No special actions if energy rises.

 Cycle   1  Pass 1  IDiag  1:
 E= -75.9585625745516    
 DIIS: error= 5.06D-02 at cycle   1 NSaved=   1.
 NSaved= 1 IEnMin= 1 EnMin= -75.9585625745516     IErMin= 1 ErrMin= 5.06D-02
 ErrMax= 5.06D-02  0.00D+00 EMaxC= 1.00D-01 BMatC= 1.15D-01 BMatP= 1.15D-01
 IDIUse=3 WtCom= 4.94D-01 WtEn= 5.06D-01
 Coeff-Com:  0.100D+01
 Coeff-En:   0.100D+01
 Coeff:      0.100D+01
 Gap=     0.458 Goal=   None    Shift=    0.000
 GapD=    0.458 DampG=2.000 DampE=0.500 DampFc=1.0000 IDamp=-1.
 RMSDP=6.20D-03 MaxDP=1.16D-01              OVMax= 1.19D-01

 Cycle   2  Pass 1  IDiag  1:
 E= -76.0013572505566     Delta-E=       -0.042794676005 Rises=F Damp=F
 DIIS: error= 4.04D-02 at cycle   2 NSaved=   2.
 NSaved= 2 IEnMin= 2 EnMin= -76.0013572505566     IErMin= 2 ErrMin= 4.04D-02
 ErrMax= 4.04D-02  0.00D+00 EMaxC= 1.00D-01 BMatC= 4.59D-02 BMatP= 1.15D-01
 IDIUse=3 WtCom= 5.96D-01 WtEn= 4.04D-01
 Coeff-Com:  0.377D+00 0.623D+00
 Coeff-En:   0.224D+00 0.776D+00
 Coeff:      0.315D+00 0.685D+00
 Gap=     0.556 Goal=   None    Shift=    0.000
 RMSDP=2.93D-03 MaxDP=5.46D-02 DE=-4.28D-02 OVMax= 5.94D-02

 Cycle   3  Pass 1  IDiag  1:
 E= -76.0331778849537     Delta-E=       -0.031820634397 Rises=F Damp=F
 DIIS: error= 4.63D-03 at cycle   3 NSaved=   3.
 NSaved= 3 IEnMin= 3 EnMin= -76.0331778849537     IErMin= 3 ErrMin= 4.63D-03
 ErrMax= 4.63D-03  0.00D+00 EMaxC= 1.00D-01 BMatC= 1.13D-03 BMatP= 4.59D-02
 IDIUse=3 WtCom= 9.54D-01 WtEn= 4.63D-02
 Coeff-Com: -0.376D-01 0.917D-01 0.946D+00
 Coeff-En:   0.000D+00 0.000D+00 0.100D+01
 Coeff:     -0.359D-01 0.875D-01 0.948D+00
 Gap=     0.538 Goal=   None    Shift=    0.000
 RMSDP=4.70D-04 MaxDP=8.11D-03 DE=-3.18D-02 OVMax= 9.25D-03

 Cycle   4  Pass 1  IDiag  1:
 E= -76.0340515470716     Delta-E=       -0.000873662118 Rises=F Damp=F
 DIIS: error= 6.58D-04 at cycle   4 NSaved=   4.
 NSaved= 4 IEnMin= 4 EnMin= -76.0340515470716     IErMin= 4 ErrMin= 6.58D-04
 ErrMax= 6.58D-04  0.00D+00 EMaxC= 1.00D-01 BMatC= 8.31D-06 BMatP= 1.13D-03
 IDIUse=3 WtCom= 9.93D-01 WtEn= 6.58D-03
 Coeff-Com:  0.840D-02-0.428D-01-0.324D+00 0.136D+01
 Coeff-En:   0.000D+00 0.000D+00 0.000D+00 0.100D+01
 Coeff:      0.834D-02-0.425D-01-0.322D+00 0.136D+01
 Gap=     0.539 Goal=   None    Shift=    0.000
 RMSDP=1.23D-04 MaxDP=1.21D-03 DE=-8.74D-04 OVMax= 2.52D-03

 Cycle   5  Pass 1  IDiag  1:
 E= -76.0340728016170     Delta-E=       -0.000021254545 Rises=F Damp=F
 DIIS: error= 1.85D-04 at cycle   5 NSaved=   5.
 NSaved= 5 IEnMin= 5 EnMin= -76.0340728016170     IErMin= 5 ErrMin= 1.85D-04
 ErrMax= 1.85D-04  0.00D+00 EMaxC= 1.00D-01 BMatC= 4.03D-07 BMatP= 8.31D-06
 IDIUse=3 WtCom= 9.98D-01 WtEn= 1.85D-03
 Coeff-Com:  0.312D-03 0.231D-02 0.133D-01-0.263D+00 0.125D+01
 Coeff-En:   0.000D+00 0.000D+00 0.000D+00 0.000D+00 0.100D+01
 Coeff:      0.312D-03 0.230D-02 0.133D-01-0.262D+00 0.125D+01
 Gap=     0.539 Goal=   None    Shift=    0.000
 RMSDP=3.16D-05 MaxDP=4.15D-04 DE=-2.13D-05 OVMax= 7.22D-04

 Cycle   6  Pass 1  IDiag  1:
 E= -76.0340741026451     Delta-E=       -0.000001301028 Rises=F Damp=F
 DIIS: error= 3.81D-05 at cycle   6 NSaved=   6.
 NSaved= 6 IEnMin= 6 EnMin= -76.0340741026451     IErMin= 6 ErrMin= 3.81D-05
 ErrMax= 3.81D-05  0.00D+00 EMaxC= 1.00D-01 BMatC= 1.74D-08 BMatP= 4.03D-07
 IDIUse=1 WtCom= 1.00D+00 WtEn= 0.00D+00
 Coeff-Com: -0.429D-03 0.155D-02 0.128D-01-0.198D-01-0.248D+00 0.125D+01
 Coeff:     -0.429D-03 0.155D-02 0.128D-01-0.198D-01-0.248D+00 0.125D+01
 Gap=     0.539 Goal=   None    Shift=    0.000
 RMSDP=6.06D-06 MaxDP=1.06D-04 DE=-1.30D-06 OVMax= 1.69D-04

 Cycle   7  Pass 1  IDiag  1:
 E= -76.0340741609106     Delta-E=       -0.000000058265 Rises=F Damp=F
 DIIS: error= 8.04D-06 at cycle   7 NSaved=   7.
 NSaved= 7 IEnMin= 7 EnMin= -76.0340741609106     IErMin= 7 ErrMin= 8.04D-06
 ErrMax= 8.04D-06  0.00D+00 EMaxC= 1.00D-01 BMatC= 8.78D-10 BMatP= 1.74D-08
 IDIUse=1 WtCom= 1.00D+00 WtEn= 0.00D+00
 Coeff-Com:  0.161D-03-0.752D-03-0.619D-02 0.231D-01 0.366D-01-0.480D+00
 Coeff-Com:  0.143D+01
 Coeff:      0.161D-03-0.752D-03-0.619D-02 0.231D-01 0.366D-01-0.480D+00
 Coeff:      0.143D+01
 Gap=     0.539 Goal=   None    Shift=    0.000
 RMSDP=1.22D-06 MaxDP=2.52D-05 DE=-5.83D-08 OVMax= 3.69D-05

 Cycle   8  Pass 1  IDiag  1:
 E= -76.0340741634401     Delta-E=       -0.000000002530 Rises=F Damp=F
 DIIS: error= 1.13D-06 at cycle   8 NSaved=   8.
 NSaved= 8 IEnMin= 8 EnMin= -76.0340741634401     IErMin= 8 ErrMin= 1.13D-06
 ErrMax= 1.13D-06  0.00D+00 EMaxC= 1.00D-01 BMatC= 2.42D-11 BMatP= 8.78D-10
 IDIUse=1 WtCom= 1.00D+00 WtEn= 0.00D+00
 Coeff-Com: -0.223D-04 0.120D-03 0.106D-02-0.533D-02 0.130D-02 0.748D-01
 Coeff-Com: -0.367D+00 0.130D+01
 Coeff:     -0.223D-04 0.120D-03 0.106D-02-0.533D-02 0.130D-02 0.748D-01
 Coeff:     -0.367D+00 0.130D+01
 Gap=     0.539 Goal=   None    Shift=    0.000
 RMSDP=2.33D-07 MaxDP=3.26D-06 DE=-2.53D-09 OVMax= 4.64D-06

 Cycle   9  Pass 1  IDiag  1:
 E= -76.0340741634982     Delta-E=       -0.000000000058 Rises=F Damp=F
 DIIS: error= 1.36D-07 at cycle   9 NSaved=   9.
 NSaved= 9 IEnMin= 9 EnMin= -76.0340741634982     IErMin= 9 ErrMin= 1.36D-07
 ErrMax= 1.36D-07  0.00D+00 EMaxC= 1.00D-01 BMatC= 4.44D-13 BMatP= 2.42D-11
 IDIUse=1 WtCom= 1.00D+00 WtEn= 0.00D+00
 Coeff-Com: -0.440D-05 0.204D-04 0.162D-03-0.534D-03-0.113D-02 0.115D-01
 Coeff-Com: -0.257D-01-0.646D-01 0.108D+01
 Coeff:     -0.440D-05 0.204D-04 0.162D-03-0.534D-03-0.113D-02 0.115D-01
 Coeff:     -0.257D-01-0.646D-01 0.108D+01
 Gap=     0.539 Goal=   None    Shift=    0.000
 RMSDP=3.09D-08 MaxDP=3.16D-07 DE=-5.81D-11 OVMax= 4.94D-07

 Cycle  10  Pass 1  IDiag  1:
 E= -76.0340741634993     Delta-E=       -0.000000000001 Rises=F Damp=F
 DIIS: error= 3.58D-08 at cycle  10 NSaved=  10.
 NSaved=10 IEnMin=10 EnMin= -76.0340741634993     IErMin=10 ErrMin= 3.58D-08
 ErrMax= 3.58D-08  0.00D+00 EMaxC= 1.00D-01 BMatC= 2.92D-14 BMatP= 4.44D-13
 IDIUse=1 WtCom= 1.00D+00 WtEn= 0.00D+00
 Coeff-Com:  0.173D-05-0.863D-05-0.721D-04 0.300D-03 0.285D-03-0.549D-02
 Coeff-Com:  0.202D-01-0.364D-01-0.289D+00 0.131D+01
 Coeff:      0.173D-05-0.863D-05-0.721D-04 0.300D-03 0.285D-03-0.549D-02
 Coeff:      0.202D-01-0.364D-01-0.289D+00 0.131D+01
 Gap=     0.539 Goal=   None    Shift=    0.000
 RMSDP=8.82D-09 MaxDP=8.79D-08 DE=-1.08D-12 OVMax= 1.54D-07

 SCF Done:  E(RHF) =  -76.0340741635     A.U. after   10 cycles
            NFock= 10  Conv=0.88D-08     -V/T= 2.0029
 KE= 7.581292764397D+01 PE=-1.983383521688D+02 EE= 3.756502772370D+01
 Leave Link  502 at Mon Feb 20 10:28:35 2023, MaxMem=   754974720 cpu:               0.6 elap:               0.1
 (Enter /opt/cluster/programs/g16-c.01/g16/l601.exe)
 Copying SCF densities to generalized density rwf, IOpCl= 0 IROHF=0.

 **********************************************************************

            Population analysis using the SCF Density.

 **********************************************************************

 Orbital symmetries:
       Occupied  (A') (A') (A') (A') (A")
       Virtual   (A') (A') (A') (A") (A') (A') (A') (A') (A") (A')
                 (A") (A') (A') (A') (A') (A') (A") (A') (A") (A')
                 (A') (A") (A') (A') (A") (A") (A') (A') (A') (A')
                 (A') (A") (A') (A") (A') (A')
 The electronic state is 1-A'.
 Alpha  occ. eigenvalues --  -20.57536  -1.33599  -0.72532  -0.55753  -0.50348
 Alpha virt. eigenvalues --    0.03571   0.05672   0.17596   0.19677   0.21641
 Alpha virt. eigenvalues --    0.22820   0.29116   0.31224   0.37700   0.42473
 Alpha virt. eigenvalues --    0.44874   0.52249   0.63916   0.65631   0.83271
 Alpha virt. eigenvalues --    0.88077   1.08855   1.09520   1.14705   1.37696
 Alpha virt. eigenvalues --    1.46574   1.48827   1.57136   1.96395   2.02990
 Alpha virt. eigenvalues --    2.06228   2.39674   2.42842   2.58170   2.73527
 Alpha virt. eigenvalues --    2.86700   3.66043   3.66976   3.70268   4.08487
 Alpha virt. eigenvalues --    4.22174
          Condensed to atoms (all electrons):
               1          2          3
     1  O    7.726234   0.340123   0.323620
     2  H    0.340123   0.531995  -0.037825
     3  H    0.323620  -0.037825   0.489934
 Mulliken charges:
               1
     1  O   -0.389977
     2  H    0.165707
     3  H    0.224271
 Sum of Mulliken charges =   0.00000
 Mulliken charges with hydrogens summed into heavy atoms:
               1
     1  O    0.000000
 Electronic spatial extent (au):  <R**2>=             19.9166
 Charge=              0.0000 electrons
 Dipole moment (field-independent basis, Debye):
    X=              0.0144    Y=             -1.8094    Z=              0.0000  Tot=              1.8095
 Quadrupole moment (field-independent basis, Debye-Ang):
   XX=             -3.6780   YY=             -6.6405   ZZ=             -7.6792
   XY=              0.1927   XZ=              0.0000   YZ=              0.0000
 Traceless Quadrupole moment (field-independent basis, Debye-Ang):
   XX=              2.3212   YY=             -0.6413   ZZ=             -1.6799
   XY=              0.1927   XZ=              0.0000   YZ=              0.0000
 Octapole moment (field-independent basis, Debye-Ang**2):
  XXX=              0.0532  YYY=             -0.9613  ZZZ=              0.0000  XYY=             -0.1142
  XXY=             -1.4669  XXZ=              0.0000  XZZ=              0.0304  YZZ=             -0.2474
  YYZ=              0.0000  XYZ=              0.0000
 Hexadecapole moment (field-independent basis, Debye-Ang**3):
 XXXX=             -5.7040 YYYY=             -7.5192 ZZZZ=             -7.0061 XXXY=              0.0552
 XXXZ=              0.0000 YYYX=             -0.0083 YYYZ=              0.0000 ZZZX=              0.0000
 ZZZY=              0.0000 XXYY=             -2.0595 XXZZ=             -2.6027 YYZZ=             -2.4555
 XXYZ=              0.0000 YYXZ=              0.0000 ZZXY=             -0.0388
 N-N= 8.926322637592D+00 E-N=-1.983383518289D+02  KE= 7.581292764397D+01
 Symmetry A'   KE= 7.138049362861D+01
 Symmetry A"   KE= 4.432434015366D+00
 No NMR shielding tensors so no spin-rotation constants.
 Leave Link  601 at Mon Feb 20 10:28:36 2023, MaxMem=   754974720 cpu:               0.3 elap:               0.1
 (Enter /opt/cluster/programs/g16-c.01/g16/l9999.exe)
 Unable to Open any file for archive entry.
 1\1\GINC-NODE85\SP\RHF\Aug-CC-pVDZ\H2O1\BOITTIER\20-Feb-2023\0\\#P HF/
 aug-cc-pVDZ scf(maxcycle=200)\\Gaussian input\\0,1\O,0,0.,0.11751,0.\H
 ,0,0.7578497316,-0.4701504329,0.\H,0,-0.9087365837,-0.3209860905,0.\\V
 ersion=ES64L-G16RevC.01\State=1-A'\HF=-76.0340742\RMSD=8.822e-09\Dipol
 e=-0.0979385,-0.7051247,0.\Quadrupole=1.720382,-0.47139,-1.248992,-0.1
 79802,0.,0.\PG=CS [SG(H2O1)]\\@
 The archive entry for this job was punched.


 GARLIC THEN HAVE POWER TO SAVE FROM DEATH
 BEAR WITH IT THOUGH IT MAKETH UNSAVORY BREATH,
 AND SCORN NOT GARLIC LIKE SOME THAT THINK
 IT ONLY MAKETH MEN WINK AND DRINK AND STINK.
   --  SIR JOHN HARRINGTON,
       "THE ENGLISHMAN'S DOCTOR", 1609
 Job cpu time:       0 days  0 hours  0 minutes  3.3 seconds.
 Elapsed time:       0 days  0 hours  0 minutes  0.8 seconds.
 File lengths (MBytes):  RWF=      6 Int=      0 D2E=      0 Chk=      1 Scr=      1
 Normal termination of Gaussian 16 at Mon Feb 20 10:28:36 2023.
