 Entering Gaussian System, Link 0=/opt/cluster/programs/g16-c.01/g16/g16
 Input=/scratch/boittier/jobs/tmp.7262316/gaussian_133_water_ccsdt_adz.com
 Output=/scratch/boittier/jobs/tmp.7262316/gaussian_133_water_ccsdt_adz.out
 Initial command:
 /opt/cluster/programs/g16-c.01/g16/l1.exe "/scratch/boittier/jobs/tmp.7262316/Gau-167302.inp" -scrdir="/scratch/boittier/jobs/tmp.7262316/"
 Entering Link 1 = /opt/cluster/programs/g16-c.01/g16/l1.exe PID=    167303.
  
 Copyright (c) 1988-2019, Gaussian, Inc.  All Rights Reserved.
  
 This is part of the Gaussian(R) 16 program.  It is based on
 the Gaussian(R) 09 system (copyright 2009, Gaussian, Inc.),
 the Gaussian(R) 03 system (copyright 2003, Gaussian, Inc.),
 the Gaussian(R) 98 system (copyright 1998, Gaussian, Inc.),
 the Gaussian(R) 94 system (copyright 1995, Gaussian, Inc.),
 the Gaussian 92(TM) system (copyright 1992, Gaussian, Inc.),
 the Gaussian 90(TM) system (copyright 1990, Gaussian, Inc.),
 the Gaussian 88(TM) system (copyright 1988, Gaussian, Inc.),
 the Gaussian 86(TM) system (copyright 1986, Carnegie Mellon
 University), and the Gaussian 82(TM) system (copyright 1983,
 Carnegie Mellon University). Gaussian is a federally registered
 trademark of Gaussian, Inc.
  
 This software contains proprietary and confidential information,
 including trade secrets, belonging to Gaussian, Inc.
  
 This software is provided under written license and may be
 used, copied, transmitted, or stored only in accord with that
 written license.
  
 The following legend is applicable only to US Government
 contracts under FAR:
  
                    RESTRICTED RIGHTS LEGEND
  
 Use, reproduction and disclosure by the US Government is
 subject to restrictions as set forth in subparagraphs (a)
 and (c) of the Commercial Computer Software - Restricted
 Rights clause in FAR 52.227-19.
  
 Gaussian, Inc.
 340 Quinnipiac St., Bldg. 40, Wallingford CT 06492
  
  
 ---------------------------------------------------------------
 Warning -- This program may not be used in any manner that
 competes with the business of Gaussian, Inc. or will provide
 assistance to any competitor of Gaussian, Inc.  The licensee
 of this program is prohibited from giving any competitor of
 Gaussian, Inc. access to this program.  By using this program,
 the user acknowledges that Gaussian, Inc. is engaged in the
 business of creating and licensing software in the field of
 computational chemistry and represents and warrants to the
 licensee that it is not a competitor of Gaussian, Inc. and that
 it will not use this program in any manner prohibited above.
 ---------------------------------------------------------------
  

 Cite this work as:
 Gaussian 16, Revision C.01,
 M. J. Frisch, G. W. Trucks, H. B. Schlegel, G. E. Scuseria, 
 M. A. Robb, J. R. Cheeseman, G. Scalmani, V. Barone, 
 G. A. Petersson, H. Nakatsuji, X. Li, M. Caricato, A. V. Marenich, 
 J. Bloino, B. G. Janesko, R. Gomperts, B. Mennucci, H. P. Hratchian, 
 J. V. Ortiz, A. F. Izmaylov, J. L. Sonnenberg, D. Williams-Young, 
 F. Ding, F. Lipparini, F. Egidi, J. Goings, B. Peng, A. Petrone, 
 T. Henderson, D. Ranasinghe, V. G. Zakrzewski, J. Gao, N. Rega, 
 G. Zheng, W. Liang, M. Hada, M. Ehara, K. Toyota, R. Fukuda, 
 J. Hasegawa, M. Ishida, T. Nakajima, Y. Honda, O. Kitao, H. Nakai, 
 T. Vreven, K. Throssell, J. A. Montgomery, Jr., J. E. Peralta, 
 F. Ogliaro, M. J. Bearpark, J. J. Heyd, E. N. Brothers, K. N. Kudin, 
 V. N. Staroverov, T. A. Keith, R. Kobayashi, J. Normand, 
 K. Raghavachari, A. P. Rendell, J. C. Burant, S. S. Iyengar, 
 J. Tomasi, M. Cossi, J. M. Millam, M. Klene, C. Adamo, R. Cammi, 
 J. W. Ochterski, R. L. Martin, K. Morokuma, O. Farkas, 
 J. B. Foresman, and D. J. Fox, Gaussian, Inc., Wallingford CT, 2019.
 
 ******************************************
 Gaussian 16:  ES64L-G16RevC.01  3-Jul-2019
                 8-Feb-2023 
 ******************************************
 %nproc=4
 Will use up to    4 processors via shared memory.
 %mem=5760MB
 %chk=gaussian_133_water_ccsdt_adz.chk
 ----------------------------------------
 #P CCSD(T)/aug-cc-pVDZ scf(maxcycle=200)
 ----------------------------------------
 1/38=1,172=1/1;
 2/12=2,17=6,18=5,40=1/2;
 3/5=16,7=10,11=9,25=1,30=1/1,2,3;
 4//1;
 5/5=2,7=200,38=5/2;
 8/6=4,9=120000,10=1/1,4;
 9/5=7,14=2/13;
 6/7=2,8=2,9=2,10=2/1;
 99/5=1,9=1/99;
 Leave Link    1 at Wed Feb  8 14:50:18 2023, MaxMem=   754974720 cpu:               0.2 elap:               0.1
 (Enter /opt/cluster/programs/g16-c.01/g16/l101.exe)
 --------------
 Gaussian input
 --------------
 Symbolic Z-matrix:
 Charge =  0 Multiplicity = 1
 O                     0.        0.11751   0. 
 H                     0.79736  -0.50079   0. 
 H                    -0.7729   -0.36094   0. 
 
 ITRead=  0  0  0
 MicOpt= -1 -1 -1
 NAtoms=      3 NQM=        3 NQMF=       0 NMMI=      0 NMMIF=      0
                NMic=       0 NMicF=      0.
                    Isotopes and Nuclear Properties:
 (Nuclear quadrupole moments (NQMom) in fm**2, nuclear magnetic moments (NMagM)
  in nuclear magnetons)

  Atom         1           2           3
 IAtWgt=          16           1           1
 AtmWgt=  15.9949146   1.0078250   1.0078250
 NucSpn=           0           1           1
 AtZEff=  -0.0000000  -0.0000000  -0.0000000
 NQMom=    0.0000000   0.0000000   0.0000000
 NMagM=    0.0000000   2.7928460   2.7928460
 AtZNuc=   8.0000000   1.0000000   1.0000000
 Leave Link  101 at Wed Feb  8 14:50:18 2023, MaxMem=   754974720 cpu:               0.5 elap:               0.2
 (Enter /opt/cluster/programs/g16-c.01/g16/l202.exe)
                          Input orientation:                          
 ---------------------------------------------------------------------
 Center     Atomic      Atomic             Coordinates (Angstroms)
 Number     Number       Type             X           Y           Z
 ---------------------------------------------------------------------
      1          8           0        0.000000    0.117510    0.000000
      2          1           0        0.797362   -0.500790    0.000000
      3          1           0       -0.772896   -0.360938    0.000000
 ---------------------------------------------------------------------
                    Distance matrix (angstroms):
                    1          2          3
     1  O    0.000000
     2  H    1.009000   0.000000
     3  H    0.909000   1.576474   0.000000
 Stoichiometry    H2O
 Framework group  CS[SG(H2O)]
 Deg. of freedom     3
 Full point group                 CS      NOp   2
 Largest Abelian subgroup         CS      NOp   2
 Largest concise Abelian subgroup C1      NOp   1
                         Standard orientation:                         
 ---------------------------------------------------------------------
 Center     Atomic      Atomic             Coordinates (Angstroms)
 Number     Number       Type             X           Y           Z
 ---------------------------------------------------------------------
      1          8           0        0.000000    0.109702    0.000000
      2          1           0        0.783374   -0.526227   -0.000000
      3          1           0       -0.783374   -0.351390    0.000000
 ---------------------------------------------------------------------
 Rotational constants (GHZ):         958.7411740         399.8892821         282.1888160
 Leave Link  202 at Wed Feb  8 14:50:18 2023, MaxMem=   754974720 cpu:               0.1 elap:               0.0
 (Enter /opt/cluster/programs/g16-c.01/g16/l301.exe)
 Standard basis: Aug-CC-pVDZ (5D, 7F)
 Ernie: Thresh=  0.10000D-02 Tol=  0.10000D-05 Strict=F.
 Ernie:  2 primitive shells out of 39 were deleted.
 There are    32 symmetry adapted cartesian basis functions of A'  symmetry.
 There are    11 symmetry adapted cartesian basis functions of A"  symmetry.
 There are    30 symmetry adapted basis functions of A'  symmetry.
 There are    11 symmetry adapted basis functions of A"  symmetry.
    41 basis functions,    65 primitive gaussians,    43 cartesian basis functions
     5 alpha electrons        5 beta electrons
       nuclear repulsion energy         9.1885533949 Hartrees.
 IExCor=    0 DFT=F Ex=HF Corr=None ExCW=0 ScaHFX=  1.000000
 ScaDFX=  1.000000  1.000000  1.000000  1.000000 ScalE2=  1.000000  1.000000
 IRadAn=      5 IRanWt=     -1 IRanGd=            0 ICorTp=0 IEmpDi=  4
 NAtoms=    3 NActive=    3 NUniq=    3 SFac= 1.00D+00 NAtFMM=   60 NAOKFM=F Big=F
 Integral buffers will be    131072 words long.
 Raffenetti 1 integral format.
 Two-electron integral symmetry is turned on.
 Leave Link  301 at Wed Feb  8 14:50:18 2023, MaxMem=   754974720 cpu:               0.3 elap:               0.1
 (Enter /opt/cluster/programs/g16-c.01/g16/l302.exe)
 NPDir=0 NMtPBC=     1 NCelOv=     1 NCel=       1 NClECP=     1 NCelD=      1
         NCelK=      1 NCelE2=     1 NClLst=     1 CellRange=     0.0.
 One-electron integrals computed using PRISM.
 One-electron integral symmetry used in STVInt
 NBasis=    41 RedAO= T EigKep=  2.68D-03  NBF=    30    11
 NBsUse=    41 1.00D-06 EigRej= -1.00D+00 NBFU=    30    11
 Leave Link  302 at Wed Feb  8 14:50:19 2023, MaxMem=   754974720 cpu:               1.3 elap:               0.6
 (Enter /opt/cluster/programs/g16-c.01/g16/l303.exe)
 DipDrv:  MaxL=1.
 Leave Link  303 at Wed Feb  8 14:50:19 2023, MaxMem=   754974720 cpu:               0.4 elap:               0.2
 (Enter /opt/cluster/programs/g16-c.01/g16/l401.exe)
 ExpMin= 2.97D-02 ExpMax= 1.17D+04 ExpMxC= 4.01D+02 IAcc=3 IRadAn=         5 AccDes= 0.00D+00
 Harris functional with IExCor=  205 and IRadAn=       5 diagonalized for initial guess.
 HarFok:  IExCor=  205 AccDes= 0.00D+00 IRadAn=         5 IDoV= 1 UseB2=F ITyADJ=14
 ICtDFT=  3500011 ScaDFX=  1.000000  1.000000  1.000000  1.000000
 FoFCou: FMM=F IPFlag=           0 FMFlag=      100000 FMFlg1=           0
         NFxFlg=           0 DoJE=T BraDBF=F KetDBF=T FulRan=T
         wScrn=  0.000000 ICntrl=       500 IOpCl=  0 I1Cent=   200000004 NGrid=           0
         NMat0=    1 NMatS0=      1 NMatT0=    0 NMatD0=    1 NMtDS0=    0 NMtDT0=    0
 Petite list used in FoFCou.
 Harris En= -76.1212916212054    
 JPrj=0 DoOrth=F DoCkMO=F.
 Initial guess orbital symmetries:
       Occupied  (A') (A') (A') (A') (A")
       Virtual   (A') (A') (A') (A") (A') (A') (A') (A') (A") (A')
                 (A") (A') (A') (A') (A') (A') (A") (A') (A") (A')
                 (A") (A') (A') (A') (A") (A") (A') (A') (A') (A')
                 (A') (A") (A') (A") (A') (A')
 The electronic state of the initial guess is 1-A'.
 Leave Link  401 at Wed Feb  8 14:50:20 2023, MaxMem=   754974720 cpu:               1.5 elap:               0.5
 (Enter /opt/cluster/programs/g16-c.01/g16/l502.exe)
 Keep R1 ints in memory in symmetry-blocked form, NReq=1210682.
 FoFCou: FMM=F IPFlag=           0 FMFlag=           0 FMFlg1=           0
         NFxFlg=           0 DoJE=F BraDBF=F KetDBF=F FulRan=T
         wScrn=  0.000000 ICntrl=       600 IOpCl=  0 I1Cent=           0 NGrid=           0
         NMat0=    1 NMatS0=    861 NMatT0=    0 NMatD0=    1 NMtDS0=    0 NMtDT0=    0
 Petite list used in FoFCou.
 Closed shell SCF:
 Using DIIS extrapolation, IDIIS=  1040.
 NGot=   754974720 LenX=   754771907 LenY=   754769617
 Requested convergence on RMS density matrix=1.00D-08 within 200 cycles.
 Requested convergence on MAX density matrix=1.00D-06.
 Requested convergence on             energy=1.00D-06.
 No special actions if energy rises.

 Cycle   1  Pass 1  IDiag  1:
 E= -75.9570794448772    
 DIIS: error= 5.15D-02 at cycle   1 NSaved=   1.
 NSaved= 1 IEnMin= 1 EnMin= -75.9570794448772     IErMin= 1 ErrMin= 5.15D-02
 ErrMax= 5.15D-02  0.00D+00 EMaxC= 1.00D-01 BMatC= 1.20D-01 BMatP= 1.20D-01
 IDIUse=3 WtCom= 4.85D-01 WtEn= 5.15D-01
 Coeff-Com:  0.100D+01
 Coeff-En:   0.100D+01
 Coeff:      0.100D+01
 Gap=     0.457 Goal=   None    Shift=    0.000
 GapD=    0.457 DampG=2.000 DampE=0.500 DampFc=1.0000 IDamp=-1.
 RMSDP=6.35D-03 MaxDP=1.19D-01              OVMax= 1.19D-01

 Cycle   2  Pass 1  IDiag  1:
 E= -76.0028277140586     Delta-E=       -0.045748269181 Rises=F Damp=F
 DIIS: error= 4.02D-02 at cycle   2 NSaved=   2.
 NSaved= 2 IEnMin= 2 EnMin= -76.0028277140586     IErMin= 2 ErrMin= 4.02D-02
 ErrMax= 4.02D-02  0.00D+00 EMaxC= 1.00D-01 BMatC= 4.63D-02 BMatP= 1.20D-01
 IDIUse=3 WtCom= 5.98D-01 WtEn= 4.02D-01
 Coeff-Com:  0.373D+00 0.627D+00
 Coeff-En:   0.208D+00 0.792D+00
 Coeff:      0.307D+00 0.693D+00
 Gap=     0.561 Goal=   None    Shift=    0.000
 RMSDP=2.96D-03 MaxDP=5.50D-02 DE=-4.57D-02 OVMax= 5.95D-02

 Cycle   3  Pass 1  IDiag  1:
 E= -76.0346123985182     Delta-E=       -0.031784684460 Rises=F Damp=F
 DIIS: error= 4.79D-03 at cycle   3 NSaved=   3.
 NSaved= 3 IEnMin= 3 EnMin= -76.0346123985182     IErMin= 3 ErrMin= 4.79D-03
 ErrMax= 4.79D-03  0.00D+00 EMaxC= 1.00D-01 BMatC= 1.19D-03 BMatP= 4.63D-02
 IDIUse=3 WtCom= 9.52D-01 WtEn= 4.79D-02
 Coeff-Com: -0.376D-01 0.935D-01 0.944D+00
 Coeff-En:   0.000D+00 0.000D+00 0.100D+01
 Coeff:     -0.358D-01 0.890D-01 0.947D+00
 Gap=     0.542 Goal=   None    Shift=    0.000
 RMSDP=4.78D-04 MaxDP=8.23D-03 DE=-3.18D-02 OVMax= 9.21D-03

 Cycle   4  Pass 1  IDiag  1:
 E= -76.0355133721451     Delta-E=       -0.000900973627 Rises=F Damp=F
 DIIS: error= 6.28D-04 at cycle   4 NSaved=   4.
 NSaved= 4 IEnMin= 4 EnMin= -76.0355133721451     IErMin= 4 ErrMin= 6.28D-04
 ErrMax= 6.28D-04  0.00D+00 EMaxC= 1.00D-01 BMatC= 7.84D-06 BMatP= 1.19D-03
 IDIUse=3 WtCom= 9.94D-01 WtEn= 6.28D-03
 Coeff-Com:  0.888D-02-0.439D-01-0.330D+00 0.137D+01
 Coeff-En:   0.000D+00 0.000D+00 0.000D+00 0.100D+01
 Coeff:      0.882D-02-0.436D-01-0.328D+00 0.136D+01
 Gap=     0.543 Goal=   None    Shift=    0.000
 RMSDP=1.17D-04 MaxDP=1.13D-03 DE=-9.01D-04 OVMax= 2.42D-03

 Cycle   5  Pass 1  IDiag  1:
 E= -76.0355329943458     Delta-E=       -0.000019622201 Rises=F Damp=F
 DIIS: error= 1.70D-04 at cycle   5 NSaved=   5.
 NSaved= 5 IEnMin= 5 EnMin= -76.0355329943458     IErMin= 5 ErrMin= 1.70D-04
 ErrMax= 1.70D-04  0.00D+00 EMaxC= 1.00D-01 BMatC= 3.54D-07 BMatP= 7.84D-06
 IDIUse=3 WtCom= 9.98D-01 WtEn= 1.70D-03
 Coeff-Com:  0.793D-04 0.305D-02 0.194D-01-0.268D+00 0.125D+01
 Coeff-En:   0.000D+00 0.000D+00 0.000D+00 0.000D+00 0.100D+01
 Coeff:      0.792D-04 0.305D-02 0.194D-01-0.268D+00 0.125D+01
 Gap=     0.543 Goal=   None    Shift=    0.000
 RMSDP=2.82D-05 MaxDP=3.77D-04 DE=-1.96D-05 OVMax= 6.34D-04

 Cycle   6  Pass 1  IDiag  1:
 E= -76.0355340770422     Delta-E=       -0.000001082696 Rises=F Damp=F
 DIIS: error= 3.36D-05 at cycle   6 NSaved=   6.
 NSaved= 6 IEnMin= 6 EnMin= -76.0355340770422     IErMin= 6 ErrMin= 3.36D-05
 ErrMax= 3.36D-05  0.00D+00 EMaxC= 1.00D-01 BMatC= 1.46D-08 BMatP= 3.54D-07
 IDIUse=1 WtCom= 1.00D+00 WtEn= 0.00D+00
 Coeff-Com: -0.410D-03 0.158D-02 0.125D-01-0.247D-01-0.218D+00 0.123D+01
 Coeff:     -0.410D-03 0.158D-02 0.125D-01-0.247D-01-0.218D+00 0.123D+01
 Gap=     0.543 Goal=   None    Shift=    0.000
 RMSDP=5.37D-06 MaxDP=9.32D-05 DE=-1.08D-06 OVMax= 1.44D-04

 Cycle   7  Pass 1  IDiag  1:
 E= -76.0355341237374     Delta-E=       -0.000000046695 Rises=F Damp=F
 DIIS: error= 7.18D-06 at cycle   7 NSaved=   7.
 NSaved= 7 IEnMin= 7 EnMin= -76.0355341237374     IErMin= 7 ErrMin= 7.18D-06
 ErrMax= 7.18D-06  0.00D+00 EMaxC= 1.00D-01 BMatC= 7.58D-10 BMatP= 1.46D-08
 IDIUse=1 WtCom= 1.00D+00 WtEn= 0.00D+00
 Coeff-Com:  0.144D-03-0.725D-03-0.575D-02 0.249D-01 0.729D-02-0.393D+00
 Coeff-Com:  0.137D+01
 Coeff:      0.144D-03-0.725D-03-0.575D-02 0.249D-01 0.729D-02-0.393D+00
 Coeff:      0.137D+01
 Gap=     0.543 Goal=   None    Shift=    0.000
 RMSDP=1.08D-06 MaxDP=2.08D-05 DE=-4.67D-08 OVMax= 3.13D-05

 Cycle   8  Pass 1  IDiag  1:
 E= -76.0355341257615     Delta-E=       -0.000000002024 Rises=F Damp=F
 DIIS: error= 7.89D-07 at cycle   8 NSaved=   8.
 NSaved= 8 IEnMin= 8 EnMin= -76.0355341257615     IErMin= 8 ErrMin= 7.89D-07
 ErrMax= 7.89D-07  0.00D+00 EMaxC= 1.00D-01 BMatC= 2.13D-11 BMatP= 7.58D-10
 IDIUse=1 WtCom= 1.00D+00 WtEn= 0.00D+00
 Coeff-Com: -0.140D-04 0.866D-04 0.748D-03-0.452D-02 0.703D-02 0.431D-01
 Coeff-Com: -0.317D+00 0.127D+01
 Coeff:     -0.140D-04 0.866D-04 0.748D-03-0.452D-02 0.703D-02 0.431D-01
 Coeff:     -0.317D+00 0.127D+01
 Gap=     0.543 Goal=   None    Shift=    0.000
 RMSDP=2.11D-07 MaxDP=2.98D-06 DE=-2.02D-09 OVMax= 4.33D-06

 Cycle   9  Pass 1  IDiag  1:
 E= -76.0355341258139     Delta-E=       -0.000000000052 Rises=F Damp=F
 DIIS: error= 1.14D-07 at cycle   9 NSaved=   9.
 NSaved= 9 IEnMin= 9 EnMin= -76.0355341258139     IErMin= 9 ErrMin= 1.14D-07
 ErrMax= 1.14D-07  0.00D+00 EMaxC= 1.00D-01 BMatC= 4.88D-13 BMatP= 2.13D-11
 IDIUse=1 WtCom= 1.00D+00 WtEn= 0.00D+00
 Coeff-Com: -0.486D-05 0.240D-04 0.184D-03-0.707D-03-0.737D-03 0.121D-01
 Coeff-Com: -0.289D-01-0.835D-01 0.110D+01
 Coeff:     -0.486D-05 0.240D-04 0.184D-03-0.707D-03-0.737D-03 0.121D-01
 Coeff:     -0.289D-01-0.835D-01 0.110D+01
 Gap=     0.543 Goal=   None    Shift=    0.000
 RMSDP=3.57D-08 MaxDP=3.54D-07 DE=-5.24D-11 OVMax= 5.47D-07

 Cycle  10  Pass 1  IDiag  1:
 E= -76.0355341258149     Delta-E=       -0.000000000001 Rises=F Damp=F
 DIIS: error= 3.16D-08 at cycle  10 NSaved=  10.
 NSaved=10 IEnMin=10 EnMin= -76.0355341258149     IErMin=10 ErrMin= 3.16D-08
 ErrMax= 3.16D-08  0.00D+00 EMaxC= 1.00D-01 BMatC= 2.74D-14 BMatP= 4.88D-13
 IDIUse=1 WtCom= 1.00D+00 WtEn= 0.00D+00
 Coeff-Com:  0.154D-05-0.813D-05-0.648D-04 0.299D-03 0.271D-04-0.434D-02
 Coeff-Com:  0.171D-01-0.174D-01-0.335D+00 0.134D+01
 Coeff:      0.154D-05-0.813D-05-0.648D-04 0.299D-03 0.271D-04-0.434D-02
 Coeff:      0.171D-01-0.174D-01-0.335D+00 0.134D+01
 Gap=     0.543 Goal=   None    Shift=    0.000
 RMSDP=8.89D-09 MaxDP=8.87D-08 DE=-1.08D-12 OVMax= 1.54D-07

 SCF Done:  E(RHF) =  -76.0355341258     A.U. after   10 cycles
            NFock= 10  Conv=0.89D-08     -V/T= 2.0014
 KE= 7.593013506723D+01 PE=-1.989002572336D+02 EE= 3.774603464572D+01
 Leave Link  502 at Wed Feb  8 14:50:22 2023, MaxMem=   754974720 cpu:               4.9 elap:               2.4
 (Enter /opt/cluster/programs/g16-c.01/g16/l801.exe)
 Windowed orbitals will be sorted by symmetry type.
 ExpMin= 2.97D-02 ExpMax= 1.17D+04 ExpMxC= 4.01D+02 IAcc=3 IRadAn=         5 AccDes= 0.00D+00
 HarFok:  IExCor=  205 AccDes= 0.00D+00 IRadAn=         5 IDoV=-2 UseB2=F ITyADJ=14
 ICtDFT= 12500011 ScaDFX=  1.000000  1.000000  1.000000  1.000000
 Largest valence mixing into a core orbital is  6.09D-05
 Largest core mixing into a valence orbital is  1.76D-05
 Range of M.O.s used for correlation:     2    41
 NBasis=    41 NAE=     5 NBE=     5 NFC=     1 NFV=     0
 NROrb=     40 NOA=     4 NOB=     4 NVA=    36 NVB=    36
 Leave Link  801 at Wed Feb  8 14:50:22 2023, MaxMem=   754974720 cpu:               0.5 elap:               0.3
 (Enter /opt/cluster/programs/g16-c.01/g16/l804.exe)
 Closed-shell transformation, MDV=   754974720 ITran=4 ISComp=2.
 Unit  1 TFree=         57024 TCopy=        242858.
 Semi-Direct transformation.
 ModeAB=           2 MOrb=             4 LenV=     754769647
 LASXX=        60334 LTotXX=       60334 LenRXX=       60334
 LTotAB=       65632 MaxLAS=      151360 LenRXY=      151360
 NonZer=      159520 LenScr=      785920 LnRSAI=           0
 LnScr1=           0 LExtra=           0 Total=       997614
 MaxDsk=          -1 SrtSym=           F ITran=            4
 DoSDTr:  NPSUse=  4
 JobTyp=0 Pass  1:  I=   1 to   4.
 (rs|ai) integrals will be sorted in core.
 Complete sort for first half transformation.
 First half transformation complete.
 Complete sort for second half transformation.
 Second half transformation complete.
 Spin components of T(2) and E(2):
     alpha-alpha T2 =       0.7702831844D-02 E2=     -0.2787789233D-01
     alpha-beta  T2 =       0.4363722530D-01 E2=     -0.1634156867D+00
     beta-beta   T2 =       0.7702831844D-02 E2=     -0.2787789233D-01
 ANorm=    0.1029098095D+01
 E2 =    -0.2191714714D+00 EUMP2 =    -0.76254705597210D+02
 Leave Link  804 at Wed Feb  8 14:50:24 2023, MaxMem=   754974720 cpu:               2.9 elap:               1.5
 (Enter /opt/cluster/programs/g16-c.01/g16/l913.exe)
 CIDS:  MDV=   754974720.
 Frozen-core window:  NFC=   1 NFV=   0.
 IFCWin=0 IBDFC=1 NFBD=     0     0 NFCmp=     0     0 NFFFC=     0     0
 Using DD3R+UMP44R for 1st iteration.
 Using DD4RQ for 2nd and later iterations.
 Keep R2 and R3 ints in memory in symmetry-blocked form, NReq=1234051.
 FoFCou: FMM=F IPFlag=           0 FMFlag=           0 FMFlg1=           0
         NFxFlg=           0 DoJE=F BraDBF=F KetDBF=F FulRan=T
         wScrn=  0.000000 ICntrl=       600 IOpCl=  0 I1Cent=           0 NGrid=           0
         NMat0=    1 NMatS0=    861 NMatT0=    0 NMatD0=    1 NMtDS0=    0 NMtDT0=    0
 Petite list used in FoFCou.
 CIDS: In Core Option IDoMem=           1.
 CCSD(T)
 =======
 Iterations=  50 Convergence= 0.100D-06
 Produce multiple copies of IABC intergrals
 Iteration Nr.   1
 **********************
 DD1Dir will call FoFMem   1 times, MxPair=        20
 NAB=    10 NAA=     0 NBB=     0.
 MP4(R+Q)=  0.24811894D-02
 Maximum subspace dimension=  5
 A-vector RMS=  5.4073623D-03 Max=  1.7098997D-02 conv= 1.00D-05.
 RLE energy=       -0.2214389431
 E3=       -0.48163922D-02        EUMP3=      -0.76259521989D+02
 E4(DQ)=   -0.14889058D-02        UMP4(DQ)=   -0.76261010895D+02
 E4(SDQ)=  -0.32158052D-02        UMP4(SDQ)=  -0.76262737795D+02
 VARIATIONAL ENERGIES WITH THE FIRST-ORDER WAVEFUNCTION:
 DE(Corr)= -0.22141576     E(Corr)=     -76.256949889    
 NORM(A)=   0.10301450D+01
 Iteration Nr.   2
 **********************
 DD1Dir will call FoFMem   1 times, MxPair=        20
 NAB=    10 NAA=     0 NBB=     0.
 A-vector RMS=  6.4461580D-04 Max=  3.0356041D-03 conv= 1.00D-05.
 RLE energy=       -0.2265904816
 DE(Corr)= -0.22597742     E(CORR)=     -76.261511542     Delta=-4.56D-03
 NORM(A)=   0.10323516D+01
 Iteration Nr.   3
 **********************
 DD1Dir will call FoFMem   1 times, MxPair=        20
 NAB=    10 NAA=     0 NBB=     0.
 A-vector RMS=  7.4866407D-04 Max=  2.8857452D-03 conv= 1.00D-05.
 RLE energy=       -0.2269662292
 DE(Corr)= -0.22654383     E(CORR)=     -76.262077958     Delta=-5.66D-04
 NORM(A)=   0.10328754D+01
 Iteration Nr.   4
 **********************
 DD1Dir will call FoFMem   1 times, MxPair=        20
 NAB=    10 NAA=     0 NBB=     0.
 A-vector RMS=  9.3343784D-05 Max=  3.7120554D-04 conv= 1.00D-05.
 RLE energy=       -0.2270035445
 DE(Corr)= -0.22697346     E(CORR)=     -76.262507583     Delta=-4.30D-04
 NORM(A)=   0.10329902D+01
 Iteration Nr.   5
 **********************
 DD1Dir will call FoFMem   1 times, MxPair=        20
 NAB=    10 NAA=     0 NBB=     0.
 A-vector RMS=  3.9365700D-05 Max=  1.6227586D-04 conv= 1.00D-05.
 RLE energy=       -0.2270092506
 DE(Corr)= -0.22700559     E(CORR)=     -76.262539716     Delta=-3.21D-05
 NORM(A)=   0.10330087D+01
 Iteration Nr.   6
 **********************
 DD1Dir will call FoFMem   1 times, MxPair=        20
 NAB=    10 NAA=     0 NBB=     0.
 A-vector RMS=  1.0657747D-05 Max=  4.0286263D-05 conv= 1.00D-05.
 RLE energy=       -0.2270065026
 DE(Corr)= -0.22700776     E(CORR)=     -76.262541884     Delta=-2.17D-06
 NORM(A)=   0.10330107D+01
 Iteration Nr.   7
 **********************
 DD1Dir will call FoFMem   1 times, MxPair=        20
 NAB=    10 NAA=     0 NBB=     0.
 A-vector RMS=  4.2806661D-06 Max=  1.4811998D-05 conv= 1.00D-05.
 RLE energy=       -0.2270070842
 DE(Corr)= -0.22700777     E(CORR)=     -76.262541893     Delta=-8.97D-09
 NORM(A)=   0.10330113D+01
 Iteration Nr.   8
 **********************
 DD1Dir will call FoFMem   1 times, MxPair=        20
 NAB=    10 NAA=     0 NBB=     0.
 A-vector RMS=  1.4285504D-06 Max=  4.6336995D-06 conv= 1.00D-05.
 RLE energy=       -0.2270073291
 DE(Corr)= -0.22700742     E(CORR)=     -76.262541549     Delta= 3.44D-07
 NORM(A)=   0.10330117D+01
 Iteration Nr.   9
 **********************
 DD1Dir will call FoFMem   1 times, MxPair=        20
 NAB=    10 NAA=     0 NBB=     0.
 A-vector RMS=  4.3544404D-07 Max=  1.6588652D-06 conv= 1.00D-05.
 RLE energy=       -0.2270075669
 DE(Corr)= -0.22700757     E(CORR)=     -76.262541699     Delta=-1.50D-07
 NORM(A)=   0.10330118D+01
 Iteration Nr.  10
 **********************
 DD1Dir will call FoFMem   1 times, MxPair=        20
 NAB=    10 NAA=     0 NBB=     0.
 A-vector RMS=  2.0141770D-07 Max=  7.0962238D-07 conv= 1.00D-05.
 RLE energy=       -0.2270076074
 DE(Corr)= -0.22700758     E(CORR)=     -76.262541710     Delta=-1.12D-08
 NORM(A)=   0.10330119D+01
 CI/CC converged in   10 iterations to DelEn=-1.12D-08 Conv= 1.00D-07 ErrA1= 2.01D-07 Conv= 1.00D-05
 Wavefunction amplitudes converged. E(Corr)=     -76.262541710    
 Largest amplitude= 3.43D-02
 IPart=  3 IA=    3   10.95% done.
 IPart=  3 IA=    5   21.27% done.
 IPart=  4 IA=    7   30.95% done.
 IPart=  3 IA=    9   40.00% done.
 IPart=  1 IA=   12   52.38% done.
 IPart=  4 IA=   15   63.33% done.
 IPart=  3 IA=   18   72.86% done.
 IPart=  2 IA=   21   80.95% done.
 IPart=  3 IA=   26   91.27% done.
 Time for triples=        0.44 seconds.
 T4(CCSD)= -0.56057820D-02
 T5(CCSD)=  0.40428843D-03
 CCSD(T)= -0.76267743203D+02
 Discarding MO integrals.
 Leave Link  913 at Wed Feb  8 14:50:24 2023, MaxMem=   754974720 cpu:               1.9 elap:               0.5
 (Enter /opt/cluster/programs/g16-c.01/g16/l601.exe)
 Copying SCF densities to generalized density rwf, IOpCl= 0 IROHF=0.

 **********************************************************************

            Population analysis using the SCF Density.

 **********************************************************************

 Orbital symmetries:
       Occupied  (A') (A') (A') (A') (A")
       Virtual   (A') (A') (A') (A") (A') (A') (A') (A') (A") (A')
                 (A") (A') (A') (A') (A') (A') (A") (A') (A") (A')
                 (A') (A") (A') (A') (A") (A") (A') (A') (A') (A')
                 (A') (A") (A') (A") (A') (A')
 The electronic state is 1-A'.
 Alpha  occ. eigenvalues --  -20.57421  -1.35401  -0.73007  -0.57300  -0.50773
 Alpha virt. eigenvalues --    0.03571   0.05741   0.17446   0.19593   0.21979
 Alpha virt. eigenvalues --    0.22975   0.29143   0.32542   0.38166   0.41620
 Alpha virt. eigenvalues --    0.44366   0.53316   0.63921   0.66349   0.82619
 Alpha virt. eigenvalues --    0.91627   1.09401   1.10492   1.14837   1.34319
 Alpha virt. eigenvalues --    1.46420   1.49023   1.59217   1.98825   2.01717
 Alpha virt. eigenvalues --    2.10428   2.40591   2.43613   2.63899   2.76401
 Alpha virt. eigenvalues --    2.91735   3.66557   3.68242   3.70898   4.04452
 Alpha virt. eigenvalues --    4.32334
          Condensed to atoms (all electrons):
               1          2          3
     1  O    7.633433   0.325101   0.355148
     2  H    0.325101   0.501232  -0.041187
     3  H    0.355148  -0.041187   0.587213
 Mulliken charges:
               1
     1  O   -0.313682
     2  H    0.214854
     3  H    0.098827
 Sum of Mulliken charges =  -0.00000
 Mulliken charges with hydrogens summed into heavy atoms:
               1
     1  O   -0.000000
 Electronic spatial extent (au):  <R**2>=             19.5772
 Charge=              0.0000 electrons
 Dipole moment (field-independent basis, Debye):
    X=             -0.0388    Y=             -1.9035    Z=             -0.0000  Tot=              1.9038
 Quadrupole moment (field-independent basis, Debye-Ang):
   XX=             -4.0418   YY=             -6.4064   ZZ=             -7.6030
   XY=             -0.3228   XZ=             -0.0000   YZ=              0.0000
 Traceless Quadrupole moment (field-independent basis, Debye-Ang):
   XX=              1.9753   YY=             -0.3893   ZZ=             -1.5859
   XY=             -0.3228   XZ=             -0.0000   YZ=              0.0000
 Octapole moment (field-independent basis, Debye-Ang**2):
  XXX=             -0.1247  YYY=             -1.1203  ZZZ=             -0.0000  XYY=              0.2027
  XXY=             -1.3925  XXZ=             -0.0000  XZZ=             -0.0615  YZZ=             -0.2756
  YYZ=             -0.0000  XYZ=              0.0000
 Hexadecapole moment (field-independent basis, Debye-Ang**3):
 XXXX=             -5.8206 YYYY=             -7.3547 ZZZZ=             -6.8642 XXXY=             -0.0483
 XXXZ=              0.0000 YYYX=             -0.0002 YYYZ=             -0.0000 ZZZX=              0.0000
 ZZZY=             -0.0000 XXYY=             -1.9385 XXZZ=             -2.4844 YYZZ=             -2.4176
 XXYZ=              0.0000 YYXZ=              0.0000 ZZXY=              0.0706
 N-N= 9.188553394879D+00 E-N=-1.989002568569D+02  KE= 7.593013506723D+01
 Symmetry A'   KE= 7.149016041199D+01
 Symmetry A"   KE= 4.439974655241D+00
 Leave Link  601 at Wed Feb  8 14:50:25 2023, MaxMem=   754974720 cpu:               0.5 elap:               0.3
 (Enter /opt/cluster/programs/g16-c.01/g16/l9999.exe)
 Unable to Open any file for archive entry.
 1\1\GINC-NODE71\SP\RCCSD(T)-FC\Aug-CC-pVDZ\H2O1\BOITTIER\08-Feb-2023\0
 \\#P CCSD(T)/aug-cc-pVDZ scf(maxcycle=200)\\Gaussian input\\0,1\O,0,0.
 ,0.11751,0.\H,0,0.7973622306,-0.5007896629,0.\H,0,-0.77289604,-0.36093
 82326,0.\\Version=ES64L-G16RevC.01\State=1-A'\HF=-76.0355341\MP2=-76.2
 547056\MP3=-76.259522\MP4D=-76.2634921\MP4DQ=-76.2610109\MP4SDQ=-76.26
 27378\CCSD=-76.2625417\CCSD(T)=-76.2677432\RMSD=8.890e-09\PG=CS [SG(H2
 O1)]\\@
 The archive entry for this job was punched.


 ONE BIG VICE IN A MAN IS APT TO KEEP OUT MANY SMALLER ONES.

                           -- BRET HARTE
 Job cpu time:       0 days  0 hours  0 minutes 15.2 seconds.
 Elapsed time:       0 days  0 hours  0 minutes  6.8 seconds.
 File lengths (MBytes):  RWF=     15 Int=      0 D2E=      0 Chk=      1 Scr=      1
 Normal termination of Gaussian 16 at Wed Feb  8 14:50:25 2023.
