 Entering Gaussian System, Link 0=/opt/cluster/programs/g16-c.01/g16/g16
 Input=/scratch/boittier/jobs/tmp.7261796/gaussian_121_water_ccsdt_atz.com
 Output=/scratch/boittier/jobs/tmp.7261796/gaussian_121_water_ccsdt_atz.out
 Initial command:
 /opt/cluster/programs/g16-c.01/g16/l1.exe "/scratch/boittier/jobs/tmp.7261796/Gau-137351.inp" -scrdir="/scratch/boittier/jobs/tmp.7261796/"
 Entering Link 1 = /opt/cluster/programs/g16-c.01/g16/l1.exe PID=    137352.
  
 Copyright (c) 1988-2019, Gaussian, Inc.  All Rights Reserved.
  
 This is part of the Gaussian(R) 16 program.  It is based on
 the Gaussian(R) 09 system (copyright 2009, Gaussian, Inc.),
 the Gaussian(R) 03 system (copyright 2003, Gaussian, Inc.),
 the Gaussian(R) 98 system (copyright 1998, Gaussian, Inc.),
 the Gaussian(R) 94 system (copyright 1995, Gaussian, Inc.),
 the Gaussian 92(TM) system (copyright 1992, Gaussian, Inc.),
 the Gaussian 90(TM) system (copyright 1990, Gaussian, Inc.),
 the Gaussian 88(TM) system (copyright 1988, Gaussian, Inc.),
 the Gaussian 86(TM) system (copyright 1986, Carnegie Mellon
 University), and the Gaussian 82(TM) system (copyright 1983,
 Carnegie Mellon University). Gaussian is a federally registered
 trademark of Gaussian, Inc.
  
 This software contains proprietary and confidential information,
 including trade secrets, belonging to Gaussian, Inc.
  
 This software is provided under written license and may be
 used, copied, transmitted, or stored only in accord with that
 written license.
  
 The following legend is applicable only to US Government
 contracts under FAR:
  
                    RESTRICTED RIGHTS LEGEND
  
 Use, reproduction and disclosure by the US Government is
 subject to restrictions as set forth in subparagraphs (a)
 and (c) of the Commercial Computer Software - Restricted
 Rights clause in FAR 52.227-19.
  
 Gaussian, Inc.
 340 Quinnipiac St., Bldg. 40, Wallingford CT 06492
  
  
 ---------------------------------------------------------------
 Warning -- This program may not be used in any manner that
 competes with the business of Gaussian, Inc. or will provide
 assistance to any competitor of Gaussian, Inc.  The licensee
 of this program is prohibited from giving any competitor of
 Gaussian, Inc. access to this program.  By using this program,
 the user acknowledges that Gaussian, Inc. is engaged in the
 business of creating and licensing software in the field of
 computational chemistry and represents and warrants to the
 licensee that it is not a competitor of Gaussian, Inc. and that
 it will not use this program in any manner prohibited above.
 ---------------------------------------------------------------
  

 Cite this work as:
 Gaussian 16, Revision C.01,
 M. J. Frisch, G. W. Trucks, H. B. Schlegel, G. E. Scuseria, 
 M. A. Robb, J. R. Cheeseman, G. Scalmani, V. Barone, 
 G. A. Petersson, H. Nakatsuji, X. Li, M. Caricato, A. V. Marenich, 
 J. Bloino, B. G. Janesko, R. Gomperts, B. Mennucci, H. P. Hratchian, 
 J. V. Ortiz, A. F. Izmaylov, J. L. Sonnenberg, D. Williams-Young, 
 F. Ding, F. Lipparini, F. Egidi, J. Goings, B. Peng, A. Petrone, 
 T. Henderson, D. Ranasinghe, V. G. Zakrzewski, J. Gao, N. Rega, 
 G. Zheng, W. Liang, M. Hada, M. Ehara, K. Toyota, R. Fukuda, 
 J. Hasegawa, M. Ishida, T. Nakajima, Y. Honda, O. Kitao, H. Nakai, 
 T. Vreven, K. Throssell, J. A. Montgomery, Jr., J. E. Peralta, 
 F. Ogliaro, M. J. Bearpark, J. J. Heyd, E. N. Brothers, K. N. Kudin, 
 V. N. Staroverov, T. A. Keith, R. Kobayashi, J. Normand, 
 K. Raghavachari, A. P. Rendell, J. C. Burant, S. S. Iyengar, 
 J. Tomasi, M. Cossi, J. M. Millam, M. Klene, C. Adamo, R. Cammi, 
 J. W. Ochterski, R. L. Martin, K. Morokuma, O. Farkas, 
 J. B. Foresman, and D. J. Fox, Gaussian, Inc., Wallingford CT, 2019.
 
 ******************************************
 Gaussian 16:  ES64L-G16RevC.01  3-Jul-2019
                 8-Feb-2023 
 ******************************************
 %nproc=4
 Will use up to    4 processors via shared memory.
 %mem=5760MB
 %chk=gaussian_121_water_ccsdt_atz.chk
 ----------------------------------------
 #P CCSD(T)/aug-cc-pVTZ scf(maxcycle=200)
 ----------------------------------------
 1/38=1,172=1/1;
 2/12=2,17=6,18=5,40=1/2;
 3/5=16,6=1,7=10,11=9,25=1,30=1/1,2,3;
 4//1;
 5/5=2,7=200,38=5/2;
 8/6=4,9=120000,10=1/1,4;
 9/5=7,14=2/13;
 6/7=2,8=2,9=2,10=2/1;
 99/5=1,9=1/99;
 Leave Link    1 at Wed Feb  8 13:54:48 2023, MaxMem=   754974720 cpu:               0.1 elap:               0.0
 (Enter /opt/cluster/programs/g16-c.01/g16/l101.exe)
 --------------
 Gaussian input
 --------------
 Symbolic Z-matrix:
 Charge =  0 Multiplicity = 1
 O                     0.        0.11751   0. 
 H                     0.79736  -0.50079   0. 
 H                    -0.51147  -0.63394   0. 
 
 ITRead=  0  0  0
 MicOpt= -1 -1 -1
 NAtoms=      3 NQM=        3 NQMF=       0 NMMI=      0 NMMIF=      0
                NMic=       0 NMicF=      0.
                    Isotopes and Nuclear Properties:
 (Nuclear quadrupole moments (NQMom) in fm**2, nuclear magnetic moments (NMagM)
  in nuclear magnetons)

  Atom         1           2           3
 IAtWgt=          16           1           1
 AtmWgt=  15.9949146   1.0078250   1.0078250
 NucSpn=           0           1           1
 AtZEff=  -0.0000000  -0.0000000  -0.0000000
 NQMom=    0.0000000   0.0000000   0.0000000
 NMagM=    0.0000000   2.7928460   2.7928460
 AtZNuc=   8.0000000   1.0000000   1.0000000
 Leave Link  101 at Wed Feb  8 13:54:48 2023, MaxMem=   754974720 cpu:               0.3 elap:               0.2
 (Enter /opt/cluster/programs/g16-c.01/g16/l202.exe)
                          Input orientation:                          
 ---------------------------------------------------------------------
 Center     Atomic      Atomic             Coordinates (Angstroms)
 Number     Number       Type             X           Y           Z
 ---------------------------------------------------------------------
      1          8           0        0.000000    0.117510    0.000000
      2          1           0        0.797362   -0.500790    0.000000
      3          1           0       -0.511473   -0.633939    0.000000
 ---------------------------------------------------------------------
                    Distance matrix (angstroms):
                    1          2          3
     1  O    0.000000
     2  H    1.009000   0.000000
     3  H    0.909000   1.315591   0.000000
 Stoichiometry    H2O
 Framework group  CS[SG(H2O)]
 Deg. of freedom     3
 Full point group                 CS      NOp   2
 Largest Abelian subgroup         CS      NOp   2
 Largest concise Abelian subgroup C1      NOp   1
                         Standard orientation:                         
 ---------------------------------------------------------------------
 Center     Atomic      Atomic             Coordinates (Angstroms)
 Number     Number       Type             X           Y           Z
 ---------------------------------------------------------------------
      1          8           0        0.000000    0.139927    0.000000
      2          1           0        0.654215   -0.628242    0.000000
      3          1           0       -0.654215   -0.491170   -0.000000
 ---------------------------------------------------------------------
 Rotational constants (GHZ):         645.3705836         523.5504656         289.0563651
 Leave Link  202 at Wed Feb  8 13:54:49 2023, MaxMem=   754974720 cpu:               0.0 elap:               0.0
 (Enter /opt/cluster/programs/g16-c.01/g16/l301.exe)
 Standard basis: Aug-CC-pVTZ (5D, 7F)
 Ernie: Thresh=  0.10000D-02 Tol=  0.10000D-05 Strict=F.
 Ernie:  3 primitive shells out of 52 were deleted.
 There are    73 symmetry adapted cartesian basis functions of A'  symmetry.
 There are    32 symmetry adapted cartesian basis functions of A"  symmetry.
 There are    62 symmetry adapted basis functions of A'  symmetry.
 There are    30 symmetry adapted basis functions of A"  symmetry.
    92 basis functions,   126 primitive gaussians,   105 cartesian basis functions
     5 alpha electrons        5 beta electrons
       nuclear repulsion energy         9.2551173729 Hartrees.
 IExCor=    0 DFT=F Ex=HF Corr=None ExCW=0 ScaHFX=  1.000000
 ScaDFX=  1.000000  1.000000  1.000000  1.000000 ScalE2=  1.000000  1.000000
 IRadAn=      5 IRanWt=     -1 IRanGd=            0 ICorTp=0 IEmpDi=  4
 NAtoms=    3 NActive=    3 NUniq=    3 SFac= 1.00D+00 NAtFMM=   60 NAOKFM=F Big=F
 Integral buffers will be    131072 words long.
 Raffenetti 1 integral format.
 Two-electron integral symmetry is turned on.
 Leave Link  301 at Wed Feb  8 13:54:49 2023, MaxMem=   754974720 cpu:               0.1 elap:               0.0
 (Enter /opt/cluster/programs/g16-c.01/g16/l302.exe)
 NPDir=0 NMtPBC=     1 NCelOv=     1 NCel=       1 NClECP=     1 NCelD=      1
         NCelK=      1 NCelE2=     1 NClLst=     1 CellRange=     0.0.
 One-electron integrals computed using PRISM.
 One-electron integral symmetry used in STVInt
 NBasis=    92 RedAO= T EigKep=  3.35D-04  NBF=    62    30
 NBsUse=    92 1.00D-06 EigRej= -1.00D+00 NBFU=    62    30
 Leave Link  302 at Wed Feb  8 13:54:50 2023, MaxMem=   754974720 cpu:               2.8 elap:               1.0
 (Enter /opt/cluster/programs/g16-c.01/g16/l303.exe)
 DipDrv:  MaxL=1.
 Leave Link  303 at Wed Feb  8 13:54:50 2023, MaxMem=   754974720 cpu:               0.6 elap:               0.3
 (Enter /opt/cluster/programs/g16-c.01/g16/l401.exe)
 ExpMin= 2.53D-02 ExpMax= 1.53D+04 ExpMxC= 5.22D+02 IAcc=3 IRadAn=         5 AccDes= 0.00D+00
 Harris functional with IExCor=  205 and IRadAn=       5 diagonalized for initial guess.
 HarFok:  IExCor=  205 AccDes= 0.00D+00 IRadAn=         5 IDoV= 1 UseB2=F ITyADJ=14
 ICtDFT=  3500011 ScaDFX=  1.000000  1.000000  1.000000  1.000000
 FoFCou: FMM=F IPFlag=           0 FMFlag=      100000 FMFlg1=           0
         NFxFlg=           0 DoJE=T BraDBF=F KetDBF=T FulRan=T
         wScrn=  0.000000 ICntrl=       500 IOpCl=  0 I1Cent=   200000004 NGrid=           0
         NMat0=    1 NMatS0=      1 NMatT0=    0 NMatD0=    1 NMtDS0=    0 NMtDT0=    0
 Petite list used in FoFCou.
 Harris En= -76.1396223902948    
 JPrj=0 DoOrth=F DoCkMO=F.
 Initial guess orbital symmetries:
       Occupied  (A') (A') (A') (A') (A")
       Virtual   (A') (A') (A') (A") (A') (A') (A') (A') (A") (A")
                 (A') (A') (A') (A') (A') (A') (A') (A") (A") (A")
                 (A') (A') (A') (A") (A') (A") (A') (A') (A") (A')
                 (A') (A') (A") (A') (A') (A") (A") (A') (A') (A')
                 (A') (A") (A") (A') (A') (A") (A') (A') (A') (A")
                 (A') (A") (A') (A') (A') (A") (A") (A') (A") (A')
                 (A') (A") (A") (A') (A') (A') (A') (A") (A') (A')
                 (A") (A') (A') (A') (A") (A') (A") (A") (A') (A")
                 (A') (A") (A') (A') (A') (A') (A')
 The electronic state of the initial guess is 1-A'.
 Leave Link  401 at Wed Feb  8 13:54:51 2023, MaxMem=   754974720 cpu:               2.1 elap:               1.1
 (Enter /opt/cluster/programs/g16-c.01/g16/l502.exe)
 Keep R1 ints in memory in symmetry-blocked form, NReq=13818732.
 FoFCou: FMM=F IPFlag=           0 FMFlag=           0 FMFlg1=           0
         NFxFlg=           0 DoJE=F BraDBF=F KetDBF=F FulRan=T
         wScrn=  0.000000 ICntrl=       600 IOpCl=  0 I1Cent=           0 NGrid=           0
         NMat0=    1 NMatS0=   4278 NMatT0=    0 NMatD0=    1 NMtDS0=    0 NMtDT0=    0
 Petite list used in FoFCou.
 Closed shell SCF:
 Using DIIS extrapolation, IDIIS=  1040.
 NGot=   754974720 LenX=   750285684 LenY=   750274218
 Requested convergence on RMS density matrix=1.00D-08 within 200 cycles.
 Requested convergence on MAX density matrix=1.00D-06.
 Requested convergence on             energy=1.00D-06.
 No special actions if energy rises.

 Cycle   1  Pass 1  IDiag  1:
 E= -75.9542567576075    
 DIIS: error= 4.82D-02 at cycle   1 NSaved=   1.
 NSaved= 1 IEnMin= 1 EnMin= -75.9542567576075     IErMin= 1 ErrMin= 4.82D-02
 ErrMax= 4.82D-02  0.00D+00 EMaxC= 1.00D-01 BMatC= 2.05D-01 BMatP= 2.05D-01
 IDIUse=3 WtCom= 5.18D-01 WtEn= 4.82D-01
 Coeff-Com:  0.100D+01
 Coeff-En:   0.100D+01
 Coeff:      0.100D+01
 Gap=     0.456 Goal=   None    Shift=    0.000
 GapD=    0.456 DampG=2.000 DampE=0.500 DampFc=1.0000 IDamp=-1.
 RMSDP=2.21D-03 MaxDP=4.86D-02              OVMax= 1.29D-01

 Cycle   2  Pass 1  IDiag  1:
 E= -76.0060732661397     Delta-E=       -0.051816508532 Rises=F Damp=F
 DIIS: error= 3.19D-02 at cycle   2 NSaved=   2.
 NSaved= 2 IEnMin= 2 EnMin= -76.0060732661397     IErMin= 2 ErrMin= 3.19D-02
 ErrMax= 3.19D-02  0.00D+00 EMaxC= 1.00D-01 BMatC= 6.23D-02 BMatP= 2.05D-01
 IDIUse=3 WtCom= 6.81D-01 WtEn= 3.19D-01
 Coeff-Com:  0.329D+00 0.671D+00
 Coeff-En:   0.216D+00 0.784D+00
 Coeff:      0.293D+00 0.707D+00
 Gap=     0.567 Goal=   None    Shift=    0.000
 RMSDP=1.34D-03 MaxDP=3.66D-02 DE=-5.18D-02 OVMax= 6.57D-02

 Cycle   3  Pass 1  IDiag  1:
 E= -76.0433969724291     Delta-E=       -0.037323706289 Rises=F Damp=F
 DIIS: error= 5.96D-03 at cycle   3 NSaved=   3.
 NSaved= 3 IEnMin= 3 EnMin= -76.0433969724291     IErMin= 3 ErrMin= 5.96D-03
 ErrMax= 5.96D-03  0.00D+00 EMaxC= 1.00D-01 BMatC= 2.51D-03 BMatP= 6.23D-02
 IDIUse=3 WtCom= 9.40D-01 WtEn= 5.96D-02
 Coeff-Com: -0.312D-01 0.134D+00 0.897D+00
 Coeff-En:   0.000D+00 0.000D+00 0.100D+01
 Coeff:     -0.293D-01 0.126D+00 0.903D+00
 Gap=     0.541 Goal=   None    Shift=    0.000
 RMSDP=2.07D-04 MaxDP=3.89D-03 DE=-3.73D-02 OVMax= 1.20D-02

 Cycle   4  Pass 1  IDiag  1:
 E= -76.0450023513385     Delta-E=       -0.001605378909 Rises=F Damp=F
 DIIS: error= 5.39D-04 at cycle   4 NSaved=   4.
 NSaved= 4 IEnMin= 4 EnMin= -76.0450023513385     IErMin= 4 ErrMin= 5.39D-04
 ErrMax= 5.39D-04  0.00D+00 EMaxC= 1.00D-01 BMatC= 1.22D-05 BMatP= 2.51D-03
 IDIUse=3 WtCom= 9.95D-01 WtEn= 5.39D-03
 Coeff-Com:  0.801D-02-0.533D-01-0.285D+00 0.133D+01
 Coeff-En:   0.000D+00 0.000D+00 0.000D+00 0.100D+01
 Coeff:      0.797D-02-0.530D-01-0.284D+00 0.133D+01
 Gap=     0.543 Goal=   None    Shift=    0.000
 RMSDP=4.11D-05 MaxDP=6.87D-04 DE=-1.61D-03 OVMax= 2.36D-03

 Cycle   5  Pass 1  IDiag  1:
 E= -76.0450277281175     Delta-E=       -0.000025376779 Rises=F Damp=F
 DIIS: error= 1.61D-04 at cycle   5 NSaved=   5.
 NSaved= 5 IEnMin= 5 EnMin= -76.0450277281175     IErMin= 5 ErrMin= 1.61D-04
 ErrMax= 1.61D-04  0.00D+00 EMaxC= 1.00D-01 BMatC= 6.94D-07 BMatP= 1.22D-05
 IDIUse=3 WtCom= 9.98D-01 WtEn= 1.61D-03
 Coeff-Com: -0.193D-03 0.415D-02 0.241D-01-0.315D+00 0.129D+01
 Coeff-En:   0.000D+00 0.000D+00 0.000D+00 0.000D+00 0.100D+01
 Coeff:     -0.193D-03 0.415D-02 0.240D-01-0.315D+00 0.129D+01
 Gap=     0.543 Goal=   None    Shift=    0.000
 RMSDP=1.12D-05 MaxDP=2.45D-04 DE=-2.54D-05 OVMax= 7.61D-04

 Cycle   6  Pass 1  IDiag  1:
 E= -76.0450294295139     Delta-E=       -0.000001701396 Rises=F Damp=F
 DIIS: error= 2.42D-05 at cycle   6 NSaved=   6.
 NSaved= 6 IEnMin= 6 EnMin= -76.0450294295139     IErMin= 6 ErrMin= 2.42D-05
 ErrMax= 2.42D-05  0.00D+00 EMaxC= 1.00D-01 BMatC= 2.19D-08 BMatP= 6.94D-07
 IDIUse=1 WtCom= 1.00D+00 WtEn= 0.00D+00
 Coeff-Com: -0.235D-03 0.938D-03 0.333D-02 0.312D-01-0.348D+00 0.131D+01
 Coeff:     -0.235D-03 0.938D-03 0.333D-02 0.312D-01-0.348D+00 0.131D+01
 Gap=     0.543 Goal=   None    Shift=    0.000
 RMSDP=2.25D-06 MaxDP=5.22D-05 DE=-1.70D-06 OVMax= 1.46D-04

 Cycle   7  Pass 1  IDiag  1:
 E= -76.0450294897725     Delta-E=       -0.000000060259 Rises=F Damp=F
 DIIS: error= 3.29D-06 at cycle   7 NSaved=   7.
 NSaved= 7 IEnMin= 7 EnMin= -76.0450294897725     IErMin= 7 ErrMin= 3.29D-06
 ErrMax= 3.29D-06  0.00D+00 EMaxC= 1.00D-01 BMatC= 7.35D-10 BMatP= 2.19D-08
 IDIUse=1 WtCom= 1.00D+00 WtEn= 0.00D+00
 Coeff-Com:  0.285D-04-0.279D-03-0.158D-02 0.143D-01-0.363D-01-0.851D-01
 Coeff-Com:  0.111D+01
 Coeff:      0.285D-04-0.279D-03-0.158D-02 0.143D-01-0.363D-01-0.851D-01
 Coeff:      0.111D+01
 Gap=     0.543 Goal=   None    Shift=    0.000
 RMSDP=3.31D-07 MaxDP=5.66D-06 DE=-6.03D-08 OVMax= 2.08D-05

 Cycle   8  Pass 1  IDiag  1:
 E= -76.0450294912089     Delta-E=       -0.000000001436 Rises=F Damp=F
 DIIS: error= 7.41D-07 at cycle   8 NSaved=   8.
 NSaved= 8 IEnMin= 8 EnMin= -76.0450294912089     IErMin= 8 ErrMin= 7.41D-07
 ErrMax= 7.41D-07  0.00D+00 EMaxC= 1.00D-01 BMatC= 3.15D-11 BMatP= 7.35D-10
 IDIUse=1 WtCom= 1.00D+00 WtEn= 0.00D+00
 Coeff-Com:  0.479D-05 0.107D-04 0.187D-03-0.415D-02 0.217D-01-0.384D-01
 Coeff-Com: -0.239D+00 0.126D+01
 Coeff:      0.479D-05 0.107D-04 0.187D-03-0.415D-02 0.217D-01-0.384D-01
 Coeff:     -0.239D+00 0.126D+01
 Gap=     0.543 Goal=   None    Shift=    0.000
 RMSDP=9.58D-08 MaxDP=2.48D-06 DE=-1.44D-09 OVMax= 5.24D-06

 Cycle   9  Pass 1  IDiag  1:
 E= -76.0450294912868     Delta-E=       -0.000000000078 Rises=F Damp=F
 DIIS: error= 1.33D-07 at cycle   9 NSaved=   9.
 NSaved= 9 IEnMin= 9 EnMin= -76.0450294912868     IErMin= 9 ErrMin= 1.33D-07
 ErrMax= 1.33D-07  0.00D+00 EMaxC= 1.00D-01 BMatC= 7.51D-13 BMatP= 3.15D-11
 IDIUse=1 WtCom= 1.00D+00 WtEn= 0.00D+00
 Coeff-Com: -0.170D-05 0.287D-05-0.228D-04 0.810D-03-0.469D-02 0.108D-01
 Coeff-Com:  0.426D-01-0.342D+00 0.129D+01
 Coeff:     -0.170D-05 0.287D-05-0.228D-04 0.810D-03-0.469D-02 0.108D-01
 Coeff:      0.426D-01-0.342D+00 0.129D+01
 Gap=     0.543 Goal=   None    Shift=    0.000
 RMSDP=1.54D-08 MaxDP=3.27D-07 DE=-7.79D-11 OVMax= 7.18D-07

 Cycle  10  Pass 1  IDiag  1:
 E= -76.0450294912886     Delta-E=       -0.000000000002 Rises=F Damp=F
 DIIS: error= 3.06D-08 at cycle  10 NSaved=  10.
 NSaved=10 IEnMin=10 EnMin= -76.0450294912886     IErMin=10 ErrMin= 3.06D-08
 ErrMax= 3.06D-08  0.00D+00 EMaxC= 1.00D-01 BMatC= 3.21D-14 BMatP= 7.51D-13
 IDIUse=1 WtCom= 1.00D+00 WtEn= 0.00D+00
 Coeff-Com:  0.457D-06-0.132D-05 0.252D-05-0.163D-03 0.985D-03-0.252D-02
 Coeff-Com: -0.820D-02 0.822D-01-0.476D+00 0.140D+01
 Coeff:      0.457D-06-0.132D-05 0.252D-05-0.163D-03 0.985D-03-0.252D-02
 Coeff:     -0.820D-02 0.822D-01-0.476D+00 0.140D+01
 Gap=     0.543 Goal=   None    Shift=    0.000
 RMSDP=3.65D-09 MaxDP=7.86D-08 DE=-1.85D-12 OVMax= 1.87D-07

 SCF Done:  E(RHF) =  -76.0450294913     A.U. after   10 cycles
            NFock= 10  Conv=0.37D-08     -V/T= 2.0006
 KE= 7.600047383793D+01 PE=-1.990850066758D+02 EE= 3.778438597366D+01
 Leave Link  502 at Wed Feb  8 13:54:53 2023, MaxMem=   754974720 cpu:               7.5 elap:               2.5
 (Enter /opt/cluster/programs/g16-c.01/g16/l801.exe)
 Windowed orbitals will be sorted by symmetry type.
 ExpMin= 2.53D-02 ExpMax= 1.53D+04 ExpMxC= 5.22D+02 IAcc=3 IRadAn=         5 AccDes= 0.00D+00
 HarFok:  IExCor=  205 AccDes= 0.00D+00 IRadAn=         5 IDoV=-2 UseB2=F ITyADJ=14
 ICtDFT= 12500011 ScaDFX=  1.000000  1.000000  1.000000  1.000000
 Largest valence mixing into a core orbital is  1.12D-04
 Largest core mixing into a valence orbital is  1.65D-05
 Range of M.O.s used for correlation:     2    92
 NBasis=    92 NAE=     5 NBE=     5 NFC=     1 NFV=     0
 NROrb=     91 NOA=     4 NOB=     4 NVA=    87 NVB=    87

 **** Warning!!: The largest alpha MO coefficient is  0.15837428D+02

 Leave Link  801 at Wed Feb  8 13:54:54 2023, MaxMem=   754974720 cpu:               0.5 elap:               0.3
 (Enter /opt/cluster/programs/g16-c.01/g16/l804.exe)
 Closed-shell transformation, MDV=   754974720 ITran=4 ISComp=2.
 Unit  1 TFree=        277501 TCopy=        343607.
 Semi-Direct transformation.
 ModeAB=           2 MOrb=             4 LenV=     754586750
 LASXX=       736380 LTotXX=      736380 LenRXX=      736380
 LTotAB=      763744 MaxLAS=     2025660 LenRXY=     2025660
 NonZer=     2107560 LenScr=     3929600 LnRSAI=           0
 LnScr1=           0 LExtra=           0 Total=      6691640
 MaxDsk=          -1 SrtSym=           F ITran=            4
 DoSDTr:  NPSUse=  4
 JobTyp=0 Pass  1:  I=   1 to   4.
 (rs|ai) integrals will be sorted in core.
 Complete sort for first half transformation.
 First half transformation complete.
 Complete sort for second half transformation.
 Second half transformation complete.
 Spin components of T(2) and E(2):
     alpha-alpha T2 =       0.8302154537D-02 E2=     -0.3293170083D-01
     alpha-beta  T2 =       0.4805536081D-01 E2=     -0.2047639698D+00
     beta-beta   T2 =       0.8302154537D-02 E2=     -0.3293170083D-01
 ANorm=    0.1031823468D+01
 E2 =    -0.2706273714D+00 EUMP2 =    -0.76315656862734D+02
 Leave Link  804 at Wed Feb  8 13:54:54 2023, MaxMem=   754974720 cpu:               2.4 elap:               0.6
 (Enter /opt/cluster/programs/g16-c.01/g16/l913.exe)
 CIDS:  MDV=   754974720.
 Frozen-core window:  NFC=   1 NFV=   0.
 IFCWin=0 IBDFC=1 NFBD=     0     0 NFCmp=     0     0 NFFFC=     0     0
 Using DD3R+UMP44R for 1st iteration.
 Using DD4RQ for 2nd and later iterations.
 Keep R2 and R3 ints in memory in symmetry-blocked form, NReq=13979827.
 FoFCou: FMM=F IPFlag=           0 FMFlag=           0 FMFlg1=           0
         NFxFlg=           0 DoJE=F BraDBF=F KetDBF=F FulRan=T
         wScrn=  0.000000 ICntrl=       600 IOpCl=  0 I1Cent=           0 NGrid=           0
         NMat0=    1 NMatS0=   4278 NMatT0=    0 NMatD0=    1 NMtDS0=    0 NMtDT0=    0
 Petite list used in FoFCou.
 CIDS: In Core Option IDoMem=           1.
 CCSD(T)
 =======
 Iterations=  50 Convergence= 0.100D-06
 Produce multiple copies of IABC intergrals
 Iteration Nr.   1
 **********************
 DD1Dir will call FoFMem   1 times, MxPair=        20
 NAB=    10 NAA=     0 NBB=     0.
 MP4(R+Q)=  0.41853756D-02
 Maximum subspace dimension=  5
 A-vector RMS=  2.9281477D-03 Max=  1.2233897D-02 conv= 1.00D-05.
 RLE energy=       -0.2686094854
 E3=       -0.21973594D-02        EUMP3=      -0.76317854222D+02
 E4(DQ)=   -0.63382730D-03        UMP4(DQ)=   -0.76318488049D+02
 E4(SDQ)=  -0.26292938D-02        UMP4(SDQ)=  -0.76320483516D+02
 VARIATIONAL ENERGIES WITH THE FIRST-ORDER WAVEFUNCTION:
 DE(Corr)= -0.26859433     E(Corr)=     -76.313623825    
 NORM(A)=   0.10314894D+01
 Iteration Nr.   2
 **********************
 DD1Dir will call FoFMem   1 times, MxPair=        20
 NAB=    10 NAA=     0 NBB=     0.
 A-vector RMS=  3.1427143D-04 Max=  2.1967358D-03 conv= 1.00D-05.
 RLE energy=       -0.2745791057
 DE(Corr)= -0.27420180     E(CORR)=     -76.319231287     Delta=-5.61D-03
 NORM(A)=   0.10336902D+01
 Iteration Nr.   3
 **********************
 DD1Dir will call FoFMem   1 times, MxPair=        20
 NAB=    10 NAA=     0 NBB=     0.
 A-vector RMS=  4.0642164D-04 Max=  2.2265205D-03 conv= 1.00D-05.
 RLE energy=       -0.2749044127
 DE(Corr)= -0.27450913     E(CORR)=     -76.319538619     Delta=-3.07D-04
 NORM(A)=   0.10341350D+01
 Iteration Nr.   4
 **********************
 DD1Dir will call FoFMem   1 times, MxPair=        20
 NAB=    10 NAA=     0 NBB=     0.
 A-vector RMS=  6.4390388D-05 Max=  3.6528156D-04 conv= 1.00D-05.
 RLE energy=       -0.2749403024
 DE(Corr)= -0.27491067     E(CORR)=     -76.319940161     Delta=-4.02D-04
 NORM(A)=   0.10342541D+01
 Iteration Nr.   5
 **********************
 DD1Dir will call FoFMem   1 times, MxPair=        20
 NAB=    10 NAA=     0 NBB=     0.
 A-vector RMS=  2.9557155D-05 Max=  1.8830932D-04 conv= 1.00D-05.
 RLE energy=       -0.2749531049
 DE(Corr)= -0.27494755     E(CORR)=     -76.319977046     Delta=-3.69D-05
 NORM(A)=   0.10342772D+01
 Iteration Nr.   6
 **********************
 DD1Dir will call FoFMem   1 times, MxPair=        20
 NAB=    10 NAA=     0 NBB=     0.
 A-vector RMS=  6.9446955D-06 Max=  4.2227179D-05 conv= 1.00D-05.
 RLE energy=       -0.2749495277
 DE(Corr)= -0.27495036     E(CORR)=     -76.319979856     Delta=-2.81D-06
 NORM(A)=   0.10342789D+01
 Iteration Nr.   7
 **********************
 DD1Dir will call FoFMem   1 times, MxPair=        20
 NAB=    10 NAA=     0 NBB=     0.
 A-vector RMS=  2.2201215D-06 Max=  1.1709423D-05 conv= 1.00D-05.
 RLE energy=       -0.2749495077
 DE(Corr)= -0.27495038     E(CORR)=     -76.319979866     Delta=-1.09D-08
 NORM(A)=   0.10342795D+01
 Iteration Nr.   8
 **********************
 DD1Dir will call FoFMem   1 times, MxPair=        20
 NAB=    10 NAA=     0 NBB=     0.
 A-vector RMS=  9.0432156D-07 Max=  5.8643188D-06 conv= 1.00D-05.
 RLE energy=       -0.2749500302
 DE(Corr)= -0.27495013     E(CORR)=     -76.319979624     Delta= 2.43D-07
 NORM(A)=   0.10342798D+01
 Iteration Nr.   9
 **********************
 DD1Dir will call FoFMem   1 times, MxPair=        20
 NAB=    10 NAA=     0 NBB=     0.
 A-vector RMS=  1.8841171D-07 Max=  1.0186084D-06 conv= 1.00D-05.
 RLE energy=       -0.2749501162
 DE(Corr)= -0.27495013     E(CORR)=     -76.319979624     Delta=-4.37D-10
 NORM(A)=   0.10342800D+01
 CI/CC converged in    9 iterations to DelEn=-4.37D-10 Conv= 1.00D-07 ErrA1= 1.88D-07 Conv= 1.00D-05
 Wavefunction amplitudes converged. E(Corr)=     -76.319979624    
 Largest amplitude= 2.15D-02
 IPart=  3 IA=    6   11.23% done.
 IPart=  2 IA=   11   21.79% done.
 IPart=  2 IA=   16   31.68% done.
 IPart=  4 IA=   21   40.90% done.
 IPart=  1 IA=   27   51.08% done.
 IPart=  3 IA=   33   60.30% done.
 IPart=  3 IA=   41   71.10% done.
 IPart=  3 IA=   49   80.19% done.
 IPart=  1 IA=   61   90.62% done.
 Time for triples=        6.41 seconds.
 T4(CCSD)= -0.91889296D-02
 T5(CCSD)=  0.33787333D-03
 CCSD(T)= -0.76328830680D+02
 Discarding MO integrals.
 Leave Link  913 at Wed Feb  8 13:54:58 2023, MaxMem=   754974720 cpu:              13.1 elap:               3.7
 (Enter /opt/cluster/programs/g16-c.01/g16/l601.exe)
 Copying SCF densities to generalized density rwf, IOpCl= 0 IROHF=0.

 **********************************************************************

            Population analysis using the SCF Density.

 **********************************************************************

 Orbital symmetries:
       Occupied  (A') (A') (A') (A') (A")
       Virtual   (A') (A') (A') (A") (A') (A') (A') (A') (A") (A")
                 (A') (A') (A') (A') (A') (A') (A') (A") (A") (A')
                 (A") (A') (A") (A') (A") (A') (A') (A') (A') (A")
                 (A') (A") (A') (A') (A') (A") (A") (A') (A') (A')
                 (A') (A") (A") (A') (A') (A") (A') (A') (A') (A")
                 (A') (A") (A') (A') (A') (A") (A') (A") (A") (A')
                 (A") (A") (A') (A') (A') (A') (A') (A") (A') (A')
                 (A") (A') (A') (A') (A") (A') (A") (A') (A") (A")
                 (A") (A') (A') (A') (A') (A') (A')
 The electronic state is 1-A'.
 Alpha  occ. eigenvalues --  -20.57390  -1.36969  -0.68018  -0.61871  -0.51540
 Alpha virt. eigenvalues --    0.02788   0.04887   0.13223   0.16115   0.17665
 Alpha virt. eigenvalues --    0.18790   0.22165   0.24753   0.27168   0.28399
 Alpha virt. eigenvalues --    0.30197   0.37054   0.42753   0.46913   0.58930
 Alpha virt. eigenvalues --    0.67055   0.70023   0.72188   0.73866   0.84954
 Alpha virt. eigenvalues --    0.87170   0.89599   0.89789   0.90827   0.92399
 Alpha virt. eigenvalues --    0.93872   0.95486   1.00649   1.05683   1.07506
 Alpha virt. eigenvalues --    1.11169   1.18644   1.20344   1.27233   1.43397
 Alpha virt. eigenvalues --    1.50885   1.56264   1.81659   1.91230   1.96360
 Alpha virt. eigenvalues --    2.18908   2.26891   2.32317   2.33109   2.39463
 Alpha virt. eigenvalues --    2.40788   2.43493   2.53820   2.66432   2.70861
 Alpha virt. eigenvalues --    2.72298   2.86415   2.88210   3.46547   3.71076
 Alpha virt. eigenvalues --    3.98432   4.01378   4.07908   4.18723   4.35505
 Alpha virt. eigenvalues --    4.39773   4.41785   4.41804   4.61920   4.72421
 Alpha virt. eigenvalues --    4.89494   5.06454   5.08592   5.20077   5.55524
 Alpha virt. eigenvalues --    5.59732   5.64205   6.32304   6.45701   6.68886
 Alpha virt. eigenvalues --    7.00880   7.09529   7.18002   7.25209   7.30138
 Alpha virt. eigenvalues --    7.42743   7.47489   7.53394   7.67841   8.08235
 Alpha virt. eigenvalues --    8.85555  16.05605
          Condensed to atoms (all electrons):
               1          2          3
     1  O    7.933768   0.258286   0.249441
     2  H    0.258286   0.440440   0.038755
     3  H    0.249441   0.038755   0.532830
 Mulliken charges:
               1
     1  O   -0.441494
     2  H    0.262520
     3  H    0.178975
 Sum of Mulliken charges =  -0.00000
 Mulliken charges with hydrogens summed into heavy atoms:
               1
     1  O   -0.000000
 Electronic spatial extent (au):  <R**2>=             19.4622
 Charge=             -0.0000 electrons
 Dipole moment (field-independent basis, Debye):
    X=             -0.0627    Y=             -2.2576    Z=             -0.0000  Tot=              2.2585
 Quadrupole moment (field-independent basis, Debye-Ang):
   XX=             -5.0543   YY=             -5.6666   ZZ=             -7.5380
   XY=             -0.1685   XZ=             -0.0000   YZ=             -0.0000
 Traceless Quadrupole moment (field-independent basis, Debye-Ang):
   XX=              1.0320   YY=              0.4197   ZZ=             -1.4517
   XY=             -0.1685   XZ=             -0.0000   YZ=             -0.0000
 Octapole moment (field-independent basis, Debye-Ang**2):
  XXX=             -0.1700  YYY=             -1.5443  ZZZ=             -0.0000  XYY=              0.1557
  XXY=             -1.2518  XXZ=             -0.0000  XZZ=             -0.0536  YZZ=             -0.2802
  YYZ=             -0.0000  XYZ=             -0.0000
 Hexadecapole moment (field-independent basis, Debye-Ang**3):
 XXXX=             -6.4378 YYYY=             -7.2631 ZZZZ=             -6.6537 XXXY=              0.1016
 XXXZ=             -0.0000 YYYX=             -0.0254 YYYZ=             -0.0000 ZZZX=             -0.0000
 ZZZY=             -0.0000 XXYY=             -1.7900 XXZZ=             -2.3546 YYZZ=             -2.4291
 XXYZ=             -0.0000 YYXZ=             -0.0000 ZZXY=              0.0664
 N-N= 9.255117372907D+00 E-N=-1.990850066072D+02  KE= 7.600047383793D+01
 Symmetry A'   KE= 7.151684494422D+01
 Symmetry A"   KE= 4.483628893715D+00
 Leave Link  601 at Wed Feb  8 13:54:58 2023, MaxMem=   754974720 cpu:               0.7 elap:               0.4
 (Enter /opt/cluster/programs/g16-c.01/g16/l9999.exe)
 Unable to Open any file for archive entry.
 1\1\GINC-NODE66\SP\RCCSD(T)-FC\Aug-CC-pVTZ\H2O1\BOITTIER\08-Feb-2023\0
 \\#P CCSD(T)/aug-cc-pVTZ scf(maxcycle=200)\\Gaussian input\\0,1\O,0,0.
 ,0.11751,0.\H,0,0.7973622306,-0.5007896629,0.\H,0,-0.5114732386,-0.633
 9393504,0.\\Version=ES64L-G16RevC.01\State=1-A'\HF=-76.0450295\MP2=-76
 .3156569\MP3=-76.3178542\MP4D=-76.3226734\MP4DQ=-76.318488\MP4SDQ=-76.
 3204835\CCSD=-76.3199796\CCSD(T)=-76.3288307\RMSD=3.654e-09\PG=CS [SG(
 H2O1)]\\@
 The archive entry for this job was punched.


 IF YOU BELIEVE CERTAIN WORDS, YOU BELIEVE THEIR HIDDEN ARGUMENTS.
 WHEN YOU BELIEVE SOMETHING IS RIGHT OR WRONG, TRUE OR FALSE, 
 YOU BELIEVE THE ASSUMPTIONS IN THE WORDS WHICH EXPRESS THE ARGUMENTS.
 SUCH ASSUMPTIONS ARE OFTEN FULL OF HOLES, BUT REMAIN MOST PRECIOUS 
 TO THE CONVINCED.

                 -- THE OPEN-ENDED PROOF FROM THE PANOPLIA PROPHETICA
                    CHILDREN OF DUNE BY FRANK HERBERT
 Job cpu time:       0 days  0 hours  0 minutes 30.5 seconds.
 Elapsed time:       0 days  0 hours  0 minutes 10.1 seconds.
 File lengths (MBytes):  RWF=     75 Int=      0 D2E=      0 Chk=      2 Scr=      1
 Normal termination of Gaussian 16 at Wed Feb  8 13:54:58 2023.
