 Entering Gaussian System, Link 0=/opt/cluster/programs/g16-c.01/g16/g16
 Input=/scratch/boittier/jobs/tmp.7262232/gaussian_84_water_ccsdt_adz.com
 Output=/scratch/boittier/jobs/tmp.7262232/gaussian_84_water_ccsdt_adz.out
 Initial command:
 /opt/cluster/programs/g16-c.01/g16/l1.exe "/scratch/boittier/jobs/tmp.7262232/Gau-53964.inp" -scrdir="/scratch/boittier/jobs/tmp.7262232/"
 Entering Link 1 = /opt/cluster/programs/g16-c.01/g16/l1.exe PID=     53965.
  
 Copyright (c) 1988-2019, Gaussian, Inc.  All Rights Reserved.
  
 This is part of the Gaussian(R) 16 program.  It is based on
 the Gaussian(R) 09 system (copyright 2009, Gaussian, Inc.),
 the Gaussian(R) 03 system (copyright 2003, Gaussian, Inc.),
 the Gaussian(R) 98 system (copyright 1998, Gaussian, Inc.),
 the Gaussian(R) 94 system (copyright 1995, Gaussian, Inc.),
 the Gaussian 92(TM) system (copyright 1992, Gaussian, Inc.),
 the Gaussian 90(TM) system (copyright 1990, Gaussian, Inc.),
 the Gaussian 88(TM) system (copyright 1988, Gaussian, Inc.),
 the Gaussian 86(TM) system (copyright 1986, Carnegie Mellon
 University), and the Gaussian 82(TM) system (copyright 1983,
 Carnegie Mellon University). Gaussian is a federally registered
 trademark of Gaussian, Inc.
  
 This software contains proprietary and confidential information,
 including trade secrets, belonging to Gaussian, Inc.
  
 This software is provided under written license and may be
 used, copied, transmitted, or stored only in accord with that
 written license.
  
 The following legend is applicable only to US Government
 contracts under FAR:
  
                    RESTRICTED RIGHTS LEGEND
  
 Use, reproduction and disclosure by the US Government is
 subject to restrictions as set forth in subparagraphs (a)
 and (c) of the Commercial Computer Software - Restricted
 Rights clause in FAR 52.227-19.
  
 Gaussian, Inc.
 340 Quinnipiac St., Bldg. 40, Wallingford CT 06492
  
  
 ---------------------------------------------------------------
 Warning -- This program may not be used in any manner that
 competes with the business of Gaussian, Inc. or will provide
 assistance to any competitor of Gaussian, Inc.  The licensee
 of this program is prohibited from giving any competitor of
 Gaussian, Inc. access to this program.  By using this program,
 the user acknowledges that Gaussian, Inc. is engaged in the
 business of creating and licensing software in the field of
 computational chemistry and represents and warrants to the
 licensee that it is not a competitor of Gaussian, Inc. and that
 it will not use this program in any manner prohibited above.
 ---------------------------------------------------------------
  

 Cite this work as:
 Gaussian 16, Revision C.01,
 M. J. Frisch, G. W. Trucks, H. B. Schlegel, G. E. Scuseria, 
 M. A. Robb, J. R. Cheeseman, G. Scalmani, V. Barone, 
 G. A. Petersson, H. Nakatsuji, X. Li, M. Caricato, A. V. Marenich, 
 J. Bloino, B. G. Janesko, R. Gomperts, B. Mennucci, H. P. Hratchian, 
 J. V. Ortiz, A. F. Izmaylov, J. L. Sonnenberg, D. Williams-Young, 
 F. Ding, F. Lipparini, F. Egidi, J. Goings, B. Peng, A. Petrone, 
 T. Henderson, D. Ranasinghe, V. G. Zakrzewski, J. Gao, N. Rega, 
 G. Zheng, W. Liang, M. Hada, M. Ehara, K. Toyota, R. Fukuda, 
 J. Hasegawa, M. Ishida, T. Nakajima, Y. Honda, O. Kitao, H. Nakai, 
 T. Vreven, K. Throssell, J. A. Montgomery, Jr., J. E. Peralta, 
 F. Ogliaro, M. J. Bearpark, J. J. Heyd, E. N. Brothers, K. N. Kudin, 
 V. N. Staroverov, T. A. Keith, R. Kobayashi, J. Normand, 
 K. Raghavachari, A. P. Rendell, J. C. Burant, S. S. Iyengar, 
 J. Tomasi, M. Cossi, J. M. Millam, M. Klene, C. Adamo, R. Cammi, 
 J. W. Ochterski, R. L. Martin, K. Morokuma, O. Farkas, 
 J. B. Foresman, and D. J. Fox, Gaussian, Inc., Wallingford CT, 2019.
 
 ******************************************
 Gaussian 16:  ES64L-G16RevC.01  3-Jul-2019
                 8-Feb-2023 
 ******************************************
 %nproc=4
 Will use up to    4 processors via shared memory.
 %mem=5760MB
 %chk=gaussian_84_water_ccsdt_adz.chk
 ----------------------------------------
 #P CCSD(T)/aug-cc-pVDZ scf(maxcycle=200)
 ----------------------------------------
 1/38=1,172=1/1;
 2/12=2,17=6,18=5,40=1/2;
 3/5=16,7=10,11=9,25=1,30=1/1,2,3;
 4//1;
 5/5=2,7=200,38=5/2;
 8/6=4,9=120000,10=1/1,4;
 9/5=7,14=2/13;
 6/7=2,8=2,9=2,10=2/1;
 99/5=1,9=1/99;
 Leave Link    1 at Wed Feb  8 14:48:56 2023, MaxMem=   754974720 cpu:               0.1 elap:               0.0
 (Enter /opt/cluster/programs/g16-c.01/g16/l101.exe)
 --------------
 Gaussian input
 --------------
 Symbolic Z-matrix:
 Charge =  0 Multiplicity = 1
 O                     0.        0.11751   0. 
 H                     0.75785  -0.47015   0. 
 H                    -0.61952  -0.61453   0. 
 
 ITRead=  0  0  0
 MicOpt= -1 -1 -1
 NAtoms=      3 NQM=        3 NQMF=       0 NMMI=      0 NMMIF=      0
                NMic=       0 NMicF=      0.
                    Isotopes and Nuclear Properties:
 (Nuclear quadrupole moments (NQMom) in fm**2, nuclear magnetic moments (NMagM)
  in nuclear magnetons)

  Atom         1           2           3
 IAtWgt=          16           1           1
 AtmWgt=  15.9949146   1.0078250   1.0078250
 NucSpn=           0           1           1
 AtZEff=  -0.0000000  -0.0000000  -0.0000000
 NQMom=    0.0000000   0.0000000   0.0000000
 NMagM=    0.0000000   2.7928460   2.7928460
 AtZNuc=   8.0000000   1.0000000   1.0000000
 Leave Link  101 at Wed Feb  8 14:48:56 2023, MaxMem=   754974720 cpu:               0.5 elap:               0.2
 (Enter /opt/cluster/programs/g16-c.01/g16/l202.exe)
                          Input orientation:                          
 ---------------------------------------------------------------------
 Center     Atomic      Atomic             Coordinates (Angstroms)
 Number     Number       Type             X           Y           Z
 ---------------------------------------------------------------------
      1          8           0        0.000000    0.117510    0.000000
      2          1           0        0.757850   -0.470150    0.000000
      3          1           0       -0.619519   -0.614526    0.000000
 ---------------------------------------------------------------------
                    Distance matrix (angstroms):
                    1          2          3
     1  O    0.000000
     2  H    0.959000   0.000000
     3  H    0.959000   1.384915   0.000000
 Stoichiometry    H2O
 Framework group  C2V[C2(O),SGV(H2)]
 Deg. of freedom     2
 Full point group                 C2V     NOp   4
 Largest Abelian subgroup         C2V     NOp   4
 Largest concise Abelian subgroup C2      NOp   2
                         Standard orientation:                         
 ---------------------------------------------------------------------
 Center     Atomic      Atomic             Coordinates (Angstroms)
 Number     Number       Type             X           Y           Z
 ---------------------------------------------------------------------
      1          8           0        0.000000    0.000000    0.132693
      2          1           0        0.000000    0.692458   -0.530771
      3          1           0       -0.000000   -0.692458   -0.530771
 ---------------------------------------------------------------------
 Rotational constants (GHZ):         641.3775481         522.8964213         288.0542153
 Leave Link  202 at Wed Feb  8 14:48:57 2023, MaxMem=   754974720 cpu:               0.1 elap:               0.0
 (Enter /opt/cluster/programs/g16-c.01/g16/l301.exe)
 Standard basis: Aug-CC-pVDZ (5D, 7F)
 Ernie: Thresh=  0.10000D-02 Tol=  0.10000D-05 Strict=F.
 Ernie:  2 primitive shells out of 39 were deleted.
 There are    20 symmetry adapted cartesian basis functions of A1  symmetry.
 There are     4 symmetry adapted cartesian basis functions of A2  symmetry.
 There are     7 symmetry adapted cartesian basis functions of B1  symmetry.
 There are    12 symmetry adapted cartesian basis functions of B2  symmetry.
 There are    18 symmetry adapted basis functions of A1  symmetry.
 There are     4 symmetry adapted basis functions of A2  symmetry.
 There are     7 symmetry adapted basis functions of B1  symmetry.
 There are    12 symmetry adapted basis functions of B2  symmetry.
    41 basis functions,    65 primitive gaussians,    43 cartesian basis functions
     5 alpha electrons        5 beta electrons
       nuclear repulsion energy         9.2109176616 Hartrees.
 IExCor=    0 DFT=F Ex=HF Corr=None ExCW=0 ScaHFX=  1.000000
 ScaDFX=  1.000000  1.000000  1.000000  1.000000 ScalE2=  1.000000  1.000000
 IRadAn=      5 IRanWt=     -1 IRanGd=            0 ICorTp=0 IEmpDi=  4
 NAtoms=    3 NActive=    3 NUniq=    2 SFac= 2.25D+00 NAtFMM=   60 NAOKFM=F Big=F
 Integral buffers will be    131072 words long.
 Raffenetti 1 integral format.
 Two-electron integral symmetry is turned on.
 Leave Link  301 at Wed Feb  8 14:48:57 2023, MaxMem=   754974720 cpu:               0.2 elap:               0.0
 (Enter /opt/cluster/programs/g16-c.01/g16/l302.exe)
 NPDir=0 NMtPBC=     1 NCelOv=     1 NCel=       1 NClECP=     1 NCelD=      1
         NCelK=      1 NCelE2=     1 NClLst=     1 CellRange=     0.0.
 One-electron integrals computed using PRISM.
 One-electron integral symmetry used in STVInt
 NBasis=    41 RedAO= T EigKep=  2.09D-03  NBF=    18     4     7    12
 NBsUse=    41 1.00D-06 EigRej= -1.00D+00 NBFU=    18     4     7    12
 Leave Link  302 at Wed Feb  8 14:48:57 2023, MaxMem=   754974720 cpu:               0.8 elap:               0.2
 (Enter /opt/cluster/programs/g16-c.01/g16/l303.exe)
 DipDrv:  MaxL=1.
 Leave Link  303 at Wed Feb  8 14:48:57 2023, MaxMem=   754974720 cpu:               0.1 elap:               0.0
 (Enter /opt/cluster/programs/g16-c.01/g16/l401.exe)
 ExpMin= 2.97D-02 ExpMax= 1.17D+04 ExpMxC= 4.01D+02 IAcc=3 IRadAn=         5 AccDes= 0.00D+00
 Harris functional with IExCor=  205 and IRadAn=       5 diagonalized for initial guess.
 HarFok:  IExCor=  205 AccDes= 0.00D+00 IRadAn=         5 IDoV= 1 UseB2=F ITyADJ=14
 ICtDFT=  3500011 ScaDFX=  1.000000  1.000000  1.000000  1.000000
 FoFCou: FMM=F IPFlag=           0 FMFlag=      100000 FMFlg1=           0
         NFxFlg=           0 DoJE=T BraDBF=F KetDBF=T FulRan=T
         wScrn=  0.000000 ICntrl=       500 IOpCl=  0 I1Cent=   200000004 NGrid=           0
         NMat0=    1 NMatS0=      1 NMatT0=    0 NMatD0=    1 NMtDS0=    0 NMtDT0=    0
 Petite list used in FoFCou.
 Harris En= -76.1202210068437    
 JPrj=0 DoOrth=F DoCkMO=F.
 Initial guess orbital symmetries:
       Occupied  (A1) (A1) (B2) (A1) (B1)
       Virtual   (A1) (B2) (A1) (B1) (B2) (A1) (B2) (A1) (A1) (A2)
                 (B1) (B2) (A1) (B2) (B2) (A1) (B1) (A1) (A2) (A1)
                 (B1) (B2) (A1) (A2) (B2) (B1) (A1) (B2) (A1) (B2)
                 (A1) (B1) (A1) (A2) (A1) (B2)
 The electronic state of the initial guess is 1-A1.
 Leave Link  401 at Wed Feb  8 14:48:58 2023, MaxMem=   754974720 cpu:               0.7 elap:               0.2
 (Enter /opt/cluster/programs/g16-c.01/g16/l502.exe)
 Keep R1 ints in memory in symmetry-blocked form, NReq=1211502.
 FoFCou: FMM=F IPFlag=           0 FMFlag=           0 FMFlg1=           0
         NFxFlg=           0 DoJE=F BraDBF=F KetDBF=F FulRan=T
         wScrn=  0.000000 ICntrl=       600 IOpCl=  0 I1Cent=           0 NGrid=           0
         NMat0=    1 NMatS0=    861 NMatT0=    0 NMatD0=    1 NMtDS0=    0 NMtDT0=    0
 Petite list used in FoFCou.
 Closed shell SCF:
 Using DIIS extrapolation, IDIIS=  1040.
 NGot=   754974720 LenX=   754868251 LenY=   754865961
 Requested convergence on RMS density matrix=1.00D-08 within 200 cycles.
 Requested convergence on MAX density matrix=1.00D-06.
 Requested convergence on             energy=1.00D-06.
 No special actions if energy rises.

 Cycle   1  Pass 1  IDiag  1:
 E= -75.9613347544616    
 DIIS: error= 5.00D-02 at cycle   1 NSaved=   1.
 NSaved= 1 IEnMin= 1 EnMin= -75.9613347544616     IErMin= 1 ErrMin= 5.00D-02
 ErrMax= 5.00D-02  0.00D+00 EMaxC= 1.00D-01 BMatC= 1.15D-01 BMatP= 1.15D-01
 IDIUse=3 WtCom= 5.00D-01 WtEn= 5.00D-01
 Coeff-Com:  0.100D+01
 Coeff-En:   0.100D+01
 Coeff:      0.100D+01
 Gap=     0.461 Goal=   None    Shift=    0.000
 GapD=    0.461 DampG=2.000 DampE=0.500 DampFc=1.0000 IDamp=-1.
 RMSDP=6.26D-03 MaxDP=1.15D-01              OVMax= 1.21D-01

 Cycle   2  Pass 1  IDiag  1:
 E= -76.0045773620619     Delta-E=       -0.043242607600 Rises=F Damp=F
 DIIS: error= 4.00D-02 at cycle   2 NSaved=   2.
 NSaved= 2 IEnMin= 2 EnMin= -76.0045773620619     IErMin= 2 ErrMin= 4.00D-02
 ErrMax= 4.00D-02  0.00D+00 EMaxC= 1.00D-01 BMatC= 4.53D-02 BMatP= 1.15D-01
 IDIUse=3 WtCom= 6.00D-01 WtEn= 4.00D-01
 Coeff-Com:  0.375D+00 0.625D+00
 Coeff-En:   0.217D+00 0.783D+00
 Coeff:      0.312D+00 0.688D+00
 Gap=     0.563 Goal=   None    Shift=    0.000
 RMSDP=2.96D-03 MaxDP=5.40D-02 DE=-4.32D-02 OVMax= 5.85D-02

 Cycle   3  Pass 1  IDiag  1:
 E= -76.0357469435239     Delta-E=       -0.031169581462 Rises=F Damp=F
 DIIS: error= 4.49D-03 at cycle   3 NSaved=   3.
 NSaved= 3 IEnMin= 3 EnMin= -76.0357469435239     IErMin= 3 ErrMin= 4.49D-03
 ErrMax= 4.49D-03  0.00D+00 EMaxC= 1.00D-01 BMatC= 1.12D-03 BMatP= 4.53D-02
 IDIUse=3 WtCom= 9.55D-01 WtEn= 4.49D-02
 Coeff-Com: -0.384D-01 0.908D-01 0.948D+00
 Coeff-En:   0.000D+00 0.000D+00 0.100D+01
 Coeff:     -0.367D-01 0.867D-01 0.950D+00
 Gap=     0.545 Goal=   None    Shift=    0.000
 RMSDP=4.64D-04 MaxDP=8.28D-03 DE=-3.12D-02 OVMax= 9.41D-03

 Cycle   4  Pass 1  IDiag  1:
 E= -76.0365996569628     Delta-E=       -0.000852713439 Rises=F Damp=F
 DIIS: error= 6.67D-04 at cycle   4 NSaved=   4.
 NSaved= 4 IEnMin= 4 EnMin= -76.0365996569628     IErMin= 4 ErrMin= 6.67D-04
 ErrMax= 6.67D-04  0.00D+00 EMaxC= 1.00D-01 BMatC= 7.11D-06 BMatP= 1.12D-03
 IDIUse=3 WtCom= 9.93D-01 WtEn= 6.67D-03
 Coeff-Com:  0.973D-02-0.434D-01-0.344D+00 0.138D+01
 Coeff-En:   0.000D+00 0.000D+00 0.000D+00 0.100D+01
 Coeff:      0.967D-02-0.431D-01-0.341D+00 0.137D+01
 Gap=     0.546 Goal=   None    Shift=    0.000
 RMSDP=1.09D-04 MaxDP=1.20D-03 DE=-8.53D-04 OVMax= 1.99D-03

 Cycle   5  Pass 1  IDiag  1:
 E= -76.0366169930468     Delta-E=       -0.000017336084 Rises=F Damp=F
 DIIS: error= 1.75D-04 at cycle   5 NSaved=   5.
 NSaved= 5 IEnMin= 5 EnMin= -76.0366169930468     IErMin= 5 ErrMin= 1.75D-04
 ErrMax= 1.75D-04  0.00D+00 EMaxC= 1.00D-01 BMatC= 2.75D-07 BMatP= 7.11D-06
 IDIUse=3 WtCom= 9.98D-01 WtEn= 1.75D-03
 Coeff-Com: -0.107D-02 0.706D-02 0.548D-01-0.369D+00 0.131D+01
 Coeff-En:   0.000D+00 0.000D+00 0.000D+00 0.000D+00 0.100D+01
 Coeff:     -0.107D-02 0.705D-02 0.547D-01-0.368D+00 0.131D+01
 Gap=     0.547 Goal=   None    Shift=    0.000
 RMSDP=2.36D-05 MaxDP=3.93D-04 DE=-1.73D-05 OVMax= 5.34D-04

 Cycle   6  Pass 1  IDiag  1:
 E= -76.0366177983962     Delta-E=       -0.000000805349 Rises=F Damp=F
 DIIS: error= 2.72D-05 at cycle   6 NSaved=   6.
 NSaved= 6 IEnMin= 6 EnMin= -76.0366177983962     IErMin= 6 ErrMin= 2.72D-05
 ErrMax= 2.72D-05  0.00D+00 EMaxC= 1.00D-01 BMatC= 8.86D-09 BMatP= 2.75D-07
 IDIUse=1 WtCom= 1.00D+00 WtEn= 0.00D+00
 Coeff-Com: -0.233D-03 0.768D-03 0.555D-02-0.105D-02-0.218D+00 0.121D+01
 Coeff:     -0.233D-03 0.768D-03 0.555D-02-0.105D-02-0.218D+00 0.121D+01
 Gap=     0.547 Goal=   None    Shift=    0.000
 RMSDP=3.44D-06 MaxDP=7.65D-05 DE=-8.05D-07 OVMax= 1.02D-04

 Cycle   7  Pass 1  IDiag  1:
 E= -76.0366178235059     Delta-E=       -0.000000025110 Rises=F Damp=F
 DIIS: error= 4.68D-06 at cycle   7 NSaved=   7.
 NSaved= 7 IEnMin= 7 EnMin= -76.0366178235059     IErMin= 7 ErrMin= 4.68D-06
 ErrMax= 4.68D-06  0.00D+00 EMaxC= 1.00D-01 BMatC= 4.06D-10 BMatP= 8.86D-09
 IDIUse=1 WtCom= 1.00D+00 WtEn= 0.00D+00
 Coeff-Com:  0.117D-03-0.580D-03-0.463D-02 0.222D-01-0.195D-01-0.262D+00
 Coeff-Com:  0.126D+01
 Coeff:      0.117D-03-0.580D-03-0.463D-02 0.222D-01-0.195D-01-0.262D+00
 Coeff:      0.126D+01
 Gap=     0.547 Goal=   None    Shift=    0.000
 RMSDP=7.18D-07 MaxDP=1.09D-05 DE=-2.51D-08 OVMax= 1.82D-05

 Cycle   8  Pass 1  IDiag  1:
 E= -76.0366178244448     Delta-E=       -0.000000000939 Rises=F Damp=F
 DIIS: error= 6.60D-07 at cycle   8 NSaved=   8.
 NSaved= 8 IEnMin= 8 EnMin= -76.0366178244448     IErMin= 8 ErrMin= 6.60D-07
 ErrMax= 6.60D-07  0.00D+00 EMaxC= 1.00D-01 BMatC= 9.39D-12 BMatP= 4.06D-10
 IDIUse=1 WtCom= 1.00D+00 WtEn= 0.00D+00
 Coeff-Com: -0.230D-04 0.126D-03 0.105D-02-0.594D-02 0.112D-01 0.384D-01
 Coeff-Com: -0.361D+00 0.132D+01
 Coeff:     -0.230D-04 0.126D-03 0.105D-02-0.594D-02 0.112D-01 0.384D-01
 Coeff:     -0.361D+00 0.132D+01
 Gap=     0.547 Goal=   None    Shift=    0.000
 RMSDP=1.65D-07 MaxDP=2.18D-06 DE=-9.39D-10 OVMax= 2.92D-06

 Cycle   9  Pass 1  IDiag  1:
 E= -76.0366178244695     Delta-E=       -0.000000000025 Rises=F Damp=F
 DIIS: error= 9.24D-08 at cycle   9 NSaved=   9.
 NSaved= 9 IEnMin= 9 EnMin= -76.0366178244695     IErMin= 9 ErrMin= 9.24D-08
 ErrMax= 9.24D-08  0.00D+00 EMaxC= 1.00D-01 BMatC= 2.45D-13 BMatP= 9.39D-12
 IDIUse=1 WtCom= 1.00D+00 WtEn= 0.00D+00
 Coeff-Com:  0.333D-05-0.193D-04-0.175D-03 0.113D-02-0.265D-02-0.487D-02
 Coeff-Com:  0.756D-01-0.376D+00 0.131D+01
 Coeff:      0.333D-05-0.193D-04-0.175D-03 0.113D-02-0.265D-02-0.487D-02
 Coeff:      0.756D-01-0.376D+00 0.131D+01
 Gap=     0.547 Goal=   None    Shift=    0.000
 RMSDP=2.40D-08 MaxDP=2.80D-07 DE=-2.47D-11 OVMax= 4.09D-07

 Cycle  10  Pass 1  IDiag  1:
 E= -76.0366178244701     Delta-E=       -0.000000000001 Rises=F Damp=F
 DIIS: error= 2.20D-08 at cycle  10 NSaved=  10.
 NSaved=10 IEnMin=10 EnMin= -76.0366178244701     IErMin=10 ErrMin= 2.20D-08
 ErrMax= 2.20D-08  0.00D+00 EMaxC= 1.00D-01 BMatC= 1.19D-14 BMatP= 2.45D-13
 IDIUse=1 WtCom= 1.00D+00 WtEn= 0.00D+00
 Coeff-Com: -0.302D-06 0.206D-05 0.251D-04-0.218D-03 0.687D-03 0.444D-04
 Coeff-Com: -0.146D-01 0.919D-01-0.509D+00 0.143D+01
 Coeff:     -0.302D-06 0.206D-05 0.251D-04-0.218D-03 0.687D-03 0.444D-04
 Coeff:     -0.146D-01 0.919D-01-0.509D+00 0.143D+01
 Gap=     0.547 Goal=   None    Shift=    0.000
 RMSDP=5.91D-09 MaxDP=5.87D-08 DE=-6.25D-13 OVMax= 1.33D-07

 SCF Done:  E(RHF) =  -76.0366178245     A.U. after   10 cycles
            NFock= 10  Conv=0.59D-08     -V/T= 2.0013
 KE= 7.593812591920D+01 PE=-1.989079109915D+02 EE= 3.772224958629D+01
 Leave Link  502 at Wed Feb  8 14:48:59 2023, MaxMem=   754974720 cpu:               0.6 elap:               1.5
 (Enter /opt/cluster/programs/g16-c.01/g16/l801.exe)
 Windowed orbitals will be sorted by symmetry type.
 ExpMin= 2.97D-02 ExpMax= 1.17D+04 ExpMxC= 4.01D+02 IAcc=3 IRadAn=         5 AccDes= 0.00D+00
 HarFok:  IExCor=  205 AccDes= 0.00D+00 IRadAn=         5 IDoV=-2 UseB2=F ITyADJ=14
 ICtDFT= 12500011 ScaDFX=  1.000000  1.000000  1.000000  1.000000
 Largest valence mixing into a core orbital is  6.21D-05
 Largest core mixing into a valence orbital is  1.73D-05
 Range of M.O.s used for correlation:     2    41
 NBasis=    41 NAE=     5 NBE=     5 NFC=     1 NFV=     0
 NROrb=     40 NOA=     4 NOB=     4 NVA=    36 NVB=    36

 **** Warning!!: The largest alpha MO coefficient is  0.10205149D+02

 Leave Link  801 at Wed Feb  8 14:48:59 2023, MaxMem=   754974720 cpu:               0.3 elap:               0.1
 (Enter /opt/cluster/programs/g16-c.01/g16/l804.exe)
 Closed-shell transformation, MDV=   754974720 ITran=4 ISComp=2.
 Unit  1 TFree=         57018 TCopy=        140846.
 Semi-Direct transformation.
 ModeAB=           4 MOrb=             4 LenV=     754769467
 LASXX=        30213 LTotXX=       30213 LenRXX=       63236
 LTotAB=       33023 MaxLAS=      110560 LenRXY=           0
 NonZer=       93449 LenScr=      785920 LnRSAI=      110560
 LnScr1=      785920 LExtra=           0 Total=      1745636
 MaxDsk=          -1 SrtSym=           T ITran=            4
 DoSDTr:  NPSUse=  4
 JobTyp=0 Pass  1:  I=   1 to   4.
 (rs|ai) integrals will be sorted in core.
 Complete sort for first half transformation.
 First half transformation complete.
 Complete sort for second half transformation.
 Second half transformation complete.
 Spin components of T(2) and E(2):
     alpha-alpha T2 =       0.7821754588D-02 E2=     -0.2811914978D-01
     alpha-beta  T2 =       0.4412630386D-01 E2=     -0.1644062916D+00
     beta-beta   T2 =       0.7821754588D-02 E2=     -0.2811914978D-01
 ANorm=    0.1029451219D+01
 E2 =    -0.2206445912D+00 EUMP2 =    -0.76257262415660D+02
 Leave Link  804 at Wed Feb  8 14:49:00 2023, MaxMem=   754974720 cpu:               0.7 elap:               0.3
 (Enter /opt/cluster/programs/g16-c.01/g16/l913.exe)
 CIDS:  MDV=   754974720.
 Frozen-core window:  NFC=   1 NFV=   0.
 IFCWin=0 IBDFC=1 NFBD=     0     0 NFCmp=     0     0 NFFFC=     0     0
 Using DD3R+UMP44R for 1st iteration.
 Using DD4RQ for 2nd and later iterations.
 Keep R2 and R3 ints in memory in symmetry-blocked form, NReq=1214278.
 FoFCou: FMM=F IPFlag=           0 FMFlag=           0 FMFlg1=           0
         NFxFlg=           0 DoJE=F BraDBF=F KetDBF=F FulRan=T
         wScrn=  0.000000 ICntrl=       600 IOpCl=  0 I1Cent=           0 NGrid=           0
         NMat0=    1 NMatS0=    861 NMatT0=    0 NMatD0=    1 NMtDS0=    0 NMtDT0=    0
 Petite list used in FoFCou.
 CIDS: In Core Option IDoMem=           1.
 CCSD(T)
 =======
 Iterations=  50 Convergence= 0.100D-06
 Produce multiple copies of IABC intergrals
 Iteration Nr.   1
 **********************
 DD1Dir will call FoFMem   1 times, MxPair=        20
 NAB=    10 NAA=     0 NBB=     0.
 MP4(R+Q)=  0.25292282D-02
 Maximum subspace dimension=  5
 A-vector RMS=  5.4443889D-03 Max=  1.7041557D-02 conv= 1.00D-05.
 RLE energy=       -0.2225048385
 E3=       -0.44641347D-02        EUMP3=      -0.76261726550D+02
 E4(DQ)=   -0.15050327D-02        UMP4(DQ)=   -0.76263231583D+02
 E4(SDQ)=  -0.32895523D-02        UMP4(SDQ)=  -0.76265016103D+02
 VARIATIONAL ENERGIES WITH THE FIRST-ORDER WAVEFUNCTION:
 DE(Corr)= -0.22248932     E(Corr)=     -76.259107148    
 NORM(A)=   0.10303639D+01
 Iteration Nr.   2
 **********************
 DD1Dir will call FoFMem   1 times, MxPair=        20
 NAB=    10 NAA=     0 NBB=     0.
 A-vector RMS=  6.4649804D-04 Max=  3.0111810D-03 conv= 1.00D-05.
 RLE energy=       -0.2277626239
 DE(Corr)= -0.22715301     E(CORR)=     -76.263770838     Delta=-4.66D-03
 NORM(A)=   0.10326039D+01
 Iteration Nr.   3
 **********************
 DD1Dir will call FoFMem   1 times, MxPair=        20
 NAB=    10 NAA=     0 NBB=     0.
 A-vector RMS=  7.4735231D-04 Max=  2.8506303D-03 conv= 1.00D-05.
 RLE energy=       -0.2281427519
 DE(Corr)= -0.22771232     E(CORR)=     -76.264330145     Delta=-5.59D-04
 NORM(A)=   0.10331350D+01
 Iteration Nr.   4
 **********************
 DD1Dir will call FoFMem   1 times, MxPair=        20
 NAB=    10 NAA=     0 NBB=     0.
 A-vector RMS=  9.7469602D-05 Max=  3.5982864D-04 conv= 1.00D-05.
 RLE energy=       -0.2281818381
 DE(Corr)= -0.22815075     E(CORR)=     -76.264768572     Delta=-4.38D-04
 NORM(A)=   0.10332519D+01
 Iteration Nr.   5
 **********************
 DD1Dir will call FoFMem   1 times, MxPair=        20
 NAB=    10 NAA=     0 NBB=     0.
 A-vector RMS=  3.7179753D-05 Max=  1.6194190D-04 conv= 1.00D-05.
 RLE energy=       -0.2281879725
 DE(Corr)= -0.22818416     E(CORR)=     -76.264801988     Delta=-3.34D-05
 NORM(A)=   0.10332702D+01
 Iteration Nr.   6
 **********************
 DD1Dir will call FoFMem   1 times, MxPair=        20
 NAB=    10 NAA=     0 NBB=     0.
 A-vector RMS=  1.0570372D-05 Max=  4.3615724D-05 conv= 1.00D-05.
 RLE energy=       -0.2281852311
 DE(Corr)= -0.22818639     E(CORR)=     -76.264804211     Delta=-2.22D-06
 NORM(A)=   0.10332719D+01
 Iteration Nr.   7
 **********************
 DD1Dir will call FoFMem   1 times, MxPair=        20
 NAB=    10 NAA=     0 NBB=     0.
 A-vector RMS=  3.6300632D-06 Max=  1.2441840D-05 conv= 1.00D-05.
 RLE energy=       -0.2281857597
 DE(Corr)= -0.22818640     E(CORR)=     -76.264804229     Delta=-1.84D-08
 NORM(A)=   0.10332725D+01
 Iteration Nr.   8
 **********************
 DD1Dir will call FoFMem   1 times, MxPair=        20
 NAB=    10 NAA=     0 NBB=     0.
 A-vector RMS=  1.2176401D-06 Max=  5.4588713D-06 conv= 1.00D-05.
 RLE energy=       -0.2281860019
 DE(Corr)= -0.22818608     E(CORR)=     -76.264803905     Delta= 3.24D-07
 NORM(A)=   0.10332728D+01
 Iteration Nr.   9
 **********************
 DD1Dir will call FoFMem   1 times, MxPair=        20
 NAB=    10 NAA=     0 NBB=     0.
 A-vector RMS=  2.5829337D-07 Max=  1.0312670D-06 conv= 1.00D-05.
 RLE energy=       -0.2281862038
 DE(Corr)= -0.22818621     E(CORR)=     -76.264804038     Delta=-1.33D-07
 NORM(A)=   0.10332730D+01
 Iteration Nr.  10
 **********************
 DD1Dir will call FoFMem   1 times, MxPair=        20
 NAB=    10 NAA=     0 NBB=     0.
 A-vector RMS=  1.2111039D-07 Max=  4.0342905D-07 conv= 1.00D-05.
 RLE energy=       -0.2281862414
 DE(Corr)= -0.22818623     E(CORR)=     -76.264804050     Delta=-1.19D-08
 NORM(A)=   0.10332730D+01
 CI/CC converged in   10 iterations to DelEn=-1.19D-08 Conv= 1.00D-07 ErrA1= 1.21D-07 Conv= 1.00D-05
 Wavefunction amplitudes converged. E(Corr)=     -76.264804050    
 Largest amplitude= 3.52D-02
 IPart=  4 IA=    3   10.95% done.
 IPart=  3 IA=    5   21.27% done.
 IPart=  2 IA=    7   30.95% done.
 IPart=  3 IA=    9   40.00% done.
 IPart=  2 IA=   12   52.38% done.
 IPart=  3 IA=   15   63.33% done.
 IPart=  2 IA=   18   72.86% done.
 IPart=  4 IA=   21   80.95% done.
 IPart=  2 IA=   26   91.27% done.
 Time for triples=        0.77 seconds.
 T4(CCSD)= -0.57304744D-02
 T5(CCSD)=  0.40804084D-03
 CCSD(T)= -0.76270126484D+02
 Discarding MO integrals.
 Leave Link  913 at Wed Feb  8 14:49:37 2023, MaxMem=   754974720 cpu:              11.8 elap:              22.1
 (Enter /opt/cluster/programs/g16-c.01/g16/l601.exe)
 Copying SCF densities to generalized density rwf, IOpCl= 0 IROHF=0.

 **********************************************************************

            Population analysis using the SCF Density.

 **********************************************************************

 Orbital symmetries:
       Occupied  (A1) (A1) (B2) (A1) (B1)
       Virtual   (A1) (B2) (A1) (B1) (A1) (B2) (B2) (A1) (A1) (A2)
                 (B1) (B2) (A1) (B2) (B2) (A1) (B1) (A1) (A2) (A1)
                 (B2) (B1) (A1) (A2) (B2) (B1) (A1) (B2) (A1) (B2)
                 (A1) (B1) (A1) (A2) (A1) (B2)
 The electronic state is 1-A1.
 Alpha  occ. eigenvalues --  -20.58250  -1.36512  -0.69284  -0.60956  -0.51262
 Alpha virt. eigenvalues --    0.03425   0.05899   0.17236   0.19821   0.22329
 Alpha virt. eigenvalues --    0.23498   0.28486   0.35060   0.38189   0.39271
 Alpha virt. eigenvalues --    0.41667   0.55052   0.64350   0.66026   0.78396
 Alpha virt. eigenvalues --    0.95801   1.11053   1.12465   1.14812   1.27526
 Alpha virt. eigenvalues --    1.44454   1.46741   1.60057   1.99154   2.03636
 Alpha virt. eigenvalues --    2.13367   2.20309   2.51102   2.65201   2.68027
 Alpha virt. eigenvalues --    3.04598   3.67931   3.69410   3.69805   3.99392
 Alpha virt. eigenvalues --    4.31380
          Condensed to atoms (all electrons):
               1          2          3
     1  O    7.635112   0.327382   0.327382
     2  H    0.327382   0.546228  -0.018548
     3  H    0.327382  -0.018548   0.546228
 Mulliken charges:
               1
     1  O   -0.289876
     2  H    0.144938
     3  H    0.144938
 Sum of Mulliken charges =   0.00000
 Mulliken charges with hydrogens summed into heavy atoms:
               1
     1  O    0.000000
 Electronic spatial extent (au):  <R**2>=             19.5286
 Charge=              0.0000 electrons
 Dipole moment (field-independent basis, Debye):
    X=             -0.0000    Y=              0.0000    Z=             -2.1858  Tot=              2.1858
 Quadrupole moment (field-independent basis, Debye-Ang):
   XX=             -7.5723   YY=             -4.8088   ZZ=             -5.8964
   XY=              0.0000   XZ=              0.0000   YZ=             -0.0000
 Traceless Quadrupole moment (field-independent basis, Debye-Ang):
   XX=             -1.4798   YY=              1.2837   ZZ=              0.1961
   XY=              0.0000   XZ=              0.0000   YZ=             -0.0000
 Octapole moment (field-independent basis, Debye-Ang**2):
  XXX=              0.0000  YYY=              0.0000  ZZZ=             -1.4331  XYY=             -0.0000
  XXY=              0.0000  XXZ=             -0.3196  XZZ=              0.0000  YZZ=              0.0000
  YYZ=             -1.3140  XYZ=             -0.0000
 Hexadecapole moment (field-independent basis, Debye-Ang**3):
 XXXX=             -6.7413 YYYY=             -6.3632 ZZZZ=             -7.3435 XXXY=             -0.0000
 XXXZ=             -0.0000 YYYX=             -0.0000 YYYZ=             -0.0000 ZZZX=             -0.0000
 ZZZY=             -0.0000 XXYY=             -2.3957 XXZZ=             -2.4274 YYZZ=             -1.8402
 XXYZ=              0.0000 YYXZ=              0.0000 ZZXY=              0.0000
 N-N= 9.210917661564D+00 E-N=-1.989079112062D+02  KE= 7.593812591920D+01
 Symmetry A1   KE= 6.787126830116D+01
 Symmetry A2   KE= 5.567166052688D-33
 Symmetry B1   KE= 4.455870097706D+00
 Symmetry B2   KE= 3.610987520328D+00
 Leave Link  601 at Wed Feb  8 14:49:41 2023, MaxMem=   754974720 cpu:               0.2 elap:               0.1
 (Enter /opt/cluster/programs/g16-c.01/g16/l9999.exe)
 Unable to Open any file for archive entry.
 1\1\GINC-NODE58\SP\RCCSD(T)-FC\Aug-CC-pVDZ\H2O1\BOITTIER\08-Feb-2023\0
 \\#P CCSD(T)/aug-cc-pVDZ scf(maxcycle=200)\\Gaussian input\\0,1\O,0,0.
 ,0.11751,0.\H,0,0.7578497316,-0.4701504329,0.\H,0,-0.6195194654,-0.614
 5259499,0.\\Version=ES64L-G16RevC.01\State=1-A1\HF=-76.0366178\MP2=-76
 .2572624\MP3=-76.2617266\MP4D=-76.2657608\MP4DQ=-76.2632316\MP4SDQ=-76
 .2650161\CCSD=-76.2648041\CCSD(T)=-76.2701265\RMSD=5.915e-09\PG=C02V [
 C2(O1),SGV(H2)]\\@
 The archive entry for this job was punched.


 THOSE WHO TRY TO PASS CHEMISTRY OFF AS A NEW SCIENCE
 SHOW HOW LITTLE KNOWLEDGE THEY HAVE OF THE CHARACTER
 AND LITERATURE OF THE ANCIENTS.
   -- NICOLAS LEFEVRE
 "COURS DE CHYMIE" J.-N.LELOUP, PARIS, 1751
 Job cpu time:       0 days  0 hours  0 minutes 16.4 seconds.
 Elapsed time:       0 days  0 hours  0 minutes 25.0 seconds.
 File lengths (MBytes):  RWF=     20 Int=      0 D2E=      0 Chk=      1 Scr=      1
 Normal termination of Gaussian 16 at Wed Feb  8 14:49:43 2023.
