 Entering Gaussian System, Link 0=/opt/cluster/programs/g16-c.01/g16/g16
 Input=/scratch/boittier/jobs/tmp.7261666/gaussian_3_water_ccsdt_atz.com
 Output=/scratch/boittier/jobs/tmp.7261666/gaussian_3_water_ccsdt_atz.out
 Initial command:
 /opt/cluster/programs/g16-c.01/g16/l1.exe "/scratch/boittier/jobs/tmp.7261666/Gau-150086.inp" -scrdir="/scratch/boittier/jobs/tmp.7261666/"
 Entering Link 1 = /opt/cluster/programs/g16-c.01/g16/l1.exe PID=    150087.
  
 Copyright (c) 1988-2019, Gaussian, Inc.  All Rights Reserved.
  
 This is part of the Gaussian(R) 16 program.  It is based on
 the Gaussian(R) 09 system (copyright 2009, Gaussian, Inc.),
 the Gaussian(R) 03 system (copyright 2003, Gaussian, Inc.),
 the Gaussian(R) 98 system (copyright 1998, Gaussian, Inc.),
 the Gaussian(R) 94 system (copyright 1995, Gaussian, Inc.),
 the Gaussian 92(TM) system (copyright 1992, Gaussian, Inc.),
 the Gaussian 90(TM) system (copyright 1990, Gaussian, Inc.),
 the Gaussian 88(TM) system (copyright 1988, Gaussian, Inc.),
 the Gaussian 86(TM) system (copyright 1986, Carnegie Mellon
 University), and the Gaussian 82(TM) system (copyright 1983,
 Carnegie Mellon University). Gaussian is a federally registered
 trademark of Gaussian, Inc.
  
 This software contains proprietary and confidential information,
 including trade secrets, belonging to Gaussian, Inc.
  
 This software is provided under written license and may be
 used, copied, transmitted, or stored only in accord with that
 written license.
  
 The following legend is applicable only to US Government
 contracts under FAR:
  
                    RESTRICTED RIGHTS LEGEND
  
 Use, reproduction and disclosure by the US Government is
 subject to restrictions as set forth in subparagraphs (a)
 and (c) of the Commercial Computer Software - Restricted
 Rights clause in FAR 52.227-19.
  
 Gaussian, Inc.
 340 Quinnipiac St., Bldg. 40, Wallingford CT 06492
  
  
 ---------------------------------------------------------------
 Warning -- This program may not be used in any manner that
 competes with the business of Gaussian, Inc. or will provide
 assistance to any competitor of Gaussian, Inc.  The licensee
 of this program is prohibited from giving any competitor of
 Gaussian, Inc. access to this program.  By using this program,
 the user acknowledges that Gaussian, Inc. is engaged in the
 business of creating and licensing software in the field of
 computational chemistry and represents and warrants to the
 licensee that it is not a competitor of Gaussian, Inc. and that
 it will not use this program in any manner prohibited above.
 ---------------------------------------------------------------
  

 Cite this work as:
 Gaussian 16, Revision C.01,
 M. J. Frisch, G. W. Trucks, H. B. Schlegel, G. E. Scuseria, 
 M. A. Robb, J. R. Cheeseman, G. Scalmani, V. Barone, 
 G. A. Petersson, H. Nakatsuji, X. Li, M. Caricato, A. V. Marenich, 
 J. Bloino, B. G. Janesko, R. Gomperts, B. Mennucci, H. P. Hratchian, 
 J. V. Ortiz, A. F. Izmaylov, J. L. Sonnenberg, D. Williams-Young, 
 F. Ding, F. Lipparini, F. Egidi, J. Goings, B. Peng, A. Petrone, 
 T. Henderson, D. Ranasinghe, V. G. Zakrzewski, J. Gao, N. Rega, 
 G. Zheng, W. Liang, M. Hada, M. Ehara, K. Toyota, R. Fukuda, 
 J. Hasegawa, M. Ishida, T. Nakajima, Y. Honda, O. Kitao, H. Nakai, 
 T. Vreven, K. Throssell, J. A. Montgomery, Jr., J. E. Peralta, 
 F. Ogliaro, M. J. Bearpark, J. J. Heyd, E. N. Brothers, K. N. Kudin, 
 V. N. Staroverov, T. A. Keith, R. Kobayashi, J. Normand, 
 K. Raghavachari, A. P. Rendell, J. C. Burant, S. S. Iyengar, 
 J. Tomasi, M. Cossi, J. M. Millam, M. Klene, C. Adamo, R. Cammi, 
 J. W. Ochterski, R. L. Martin, K. Morokuma, O. Farkas, 
 J. B. Foresman, and D. J. Fox, Gaussian, Inc., Wallingford CT, 2019.
 
 ******************************************
 Gaussian 16:  ES64L-G16RevC.01  3-Jul-2019
                 8-Feb-2023 
 ******************************************
 %nproc=4
 Will use up to    4 processors via shared memory.
 %mem=5760MB
 %chk=gaussian_3_water_ccsdt_atz.chk
 ----------------------------------------
 #P CCSD(T)/aug-cc-pVTZ scf(maxcycle=200)
 ----------------------------------------
 1/38=1,172=1/1;
 2/12=2,17=6,18=5,40=1/2;
 3/5=16,6=1,7=10,11=9,25=1,30=1/1,2,3;
 4//1;
 5/5=2,7=200,38=5/2;
 8/6=4,9=120000,10=1/1,4;
 9/5=7,14=2/13;
 6/7=2,8=2,9=2,10=2/1;
 99/5=1,9=1/99;
 Leave Link    1 at Wed Feb  8 13:46:43 2023, MaxMem=   754974720 cpu:               1.8 elap:               2.1
 (Enter /opt/cluster/programs/g16-c.01/g16/l101.exe)
 --------------
 Gaussian input
 --------------
 Symbolic Z-matrix:
 Charge =  0 Multiplicity = 1
 O                     0.        0.11751   0. 
 H                     0.71834  -0.43951   0. 
 H                    -0.56265  -0.59643   0. 
 
 ITRead=  0  0  0
 MicOpt= -1 -1 -1
 NAtoms=      3 NQM=        3 NQMF=       0 NMMI=      0 NMMIF=      0
                NMic=       0 NMicF=      0.
                    Isotopes and Nuclear Properties:
 (Nuclear quadrupole moments (NQMom) in fm**2, nuclear magnetic moments (NMagM)
  in nuclear magnetons)

  Atom         1           2           3
 IAtWgt=          16           1           1
 AtmWgt=  15.9949146   1.0078250   1.0078250
 NucSpn=           0           1           1
 AtZEff=  -0.0000000  -0.0000000  -0.0000000
 NQMom=    0.0000000   0.0000000   0.0000000
 NMagM=    0.0000000   2.7928460   2.7928460
 AtZNuc=   8.0000000   1.0000000   1.0000000
 Leave Link  101 at Wed Feb  8 13:46:48 2023, MaxMem=   754974720 cpu:               1.0 elap:               0.5
 (Enter /opt/cluster/programs/g16-c.01/g16/l202.exe)
                          Input orientation:                          
 ---------------------------------------------------------------------
 Center     Atomic      Atomic             Coordinates (Angstroms)
 Number     Number       Type             X           Y           Z
 ---------------------------------------------------------------------
      1          8           0        0.000000    0.117510    0.000000
      2          1           0        0.718337   -0.439511    0.000000
      3          1           0       -0.562646   -0.596430    0.000000
 ---------------------------------------------------------------------
                    Distance matrix (angstroms):
                    1          2          3
     1  O    0.000000
     2  H    0.909000   0.000000
     3  H    0.909000   1.290558   0.000000
 Stoichiometry    H2O
 Framework group  C2V[C2(O),SGV(H2)]
 Deg. of freedom     2
 Full point group                 C2V     NOp   4
 Largest Abelian subgroup         C2V     NOp   4
 Largest concise Abelian subgroup C2      NOp   2
                         Standard orientation:                         
 ---------------------------------------------------------------------
 Center     Atomic      Atomic             Coordinates (Angstroms)
 Number     Number       Type             X           Y           Z
 ---------------------------------------------------------------------
      1          8           0        0.000000    0.000000    0.128046
      2          1           0        0.000000    0.645279   -0.512185
      3          1           0       -0.000000   -0.645279   -0.512185
 ---------------------------------------------------------------------
 Rotational constants (GHZ):         688.7697487         602.1527984         321.2777037
 Leave Link  202 at Wed Feb  8 13:46:56 2023, MaxMem=   754974720 cpu:               0.0 elap:               0.0
 (Enter /opt/cluster/programs/g16-c.01/g16/l301.exe)
 Standard basis: Aug-CC-pVTZ (5D, 7F)
 Ernie: Thresh=  0.10000D-02 Tol=  0.10000D-05 Strict=F.
 Ernie:  3 primitive shells out of 52 were deleted.
 There are    42 symmetry adapted cartesian basis functions of A1  symmetry.
 There are    12 symmetry adapted cartesian basis functions of A2  symmetry.
 There are    20 symmetry adapted cartesian basis functions of B1  symmetry.
 There are    31 symmetry adapted cartesian basis functions of B2  symmetry.
 There are    35 symmetry adapted basis functions of A1  symmetry.
 There are    12 symmetry adapted basis functions of A2  symmetry.
 There are    18 symmetry adapted basis functions of B1  symmetry.
 There are    27 symmetry adapted basis functions of B2  symmetry.
    92 basis functions,   126 primitive gaussians,   105 cartesian basis functions
     5 alpha electrons        5 beta electrons
       nuclear repulsion energy         9.7244877481 Hartrees.
 IExCor=    0 DFT=F Ex=HF Corr=None ExCW=0 ScaHFX=  1.000000
 ScaDFX=  1.000000  1.000000  1.000000  1.000000 ScalE2=  1.000000  1.000000
 IRadAn=      5 IRanWt=     -1 IRanGd=            0 ICorTp=0 IEmpDi=  4
 NAtoms=    3 NActive=    3 NUniq=    2 SFac= 2.25D+00 NAtFMM=   60 NAOKFM=F Big=F
 Integral buffers will be    131072 words long.
 Raffenetti 1 integral format.
 Two-electron integral symmetry is turned on.
 Leave Link  301 at Wed Feb  8 13:47:04 2023, MaxMem=   754974720 cpu:               0.2 elap:               0.1
 (Enter /opt/cluster/programs/g16-c.01/g16/l302.exe)
 NPDir=0 NMtPBC=     1 NCelOv=     1 NCel=       1 NClECP=     1 NCelD=      1
         NCelK=      1 NCelE2=     1 NClLst=     1 CellRange=     0.0.
 One-electron integrals computed using PRISM.
 One-electron integral symmetry used in STVInt
 NBasis=    92 RedAO= T EigKep=  3.08D-04  NBF=    35    12    18    27
 NBsUse=    92 1.00D-06 EigRej= -1.00D+00 NBFU=    35    12    18    27
 Leave Link  302 at Wed Feb  8 13:47:12 2023, MaxMem=   754974720 cpu:               4.6 elap:               2.3
 (Enter /opt/cluster/programs/g16-c.01/g16/l303.exe)
 DipDrv:  MaxL=1.
 Leave Link  303 at Wed Feb  8 13:47:20 2023, MaxMem=   754974720 cpu:               0.6 elap:               0.3
 (Enter /opt/cluster/programs/g16-c.01/g16/l401.exe)
 ExpMin= 2.53D-02 ExpMax= 1.53D+04 ExpMxC= 5.22D+02 IAcc=3 IRadAn=         5 AccDes= 0.00D+00
 Harris functional with IExCor=  205 and IRadAn=       5 diagonalized for initial guess.
 HarFok:  IExCor=  205 AccDes= 0.00D+00 IRadAn=         5 IDoV= 1 UseB2=F ITyADJ=14
 ICtDFT=  3500011 ScaDFX=  1.000000  1.000000  1.000000  1.000000
 FoFCou: FMM=F IPFlag=           0 FMFlag=      100000 FMFlg1=           0
         NFxFlg=           0 DoJE=T BraDBF=F KetDBF=T FulRan=T
         wScrn=  0.000000 ICntrl=       500 IOpCl=  0 I1Cent=   200000004 NGrid=           0
         NMat0=    1 NMatS0=      1 NMatT0=    0 NMatD0=    1 NMtDS0=    0 NMtDT0=    0
 Petite list used in FoFCou.
 Harris En= -76.1446927650745    
 JPrj=0 DoOrth=F DoCkMO=F.
 Initial guess orbital symmetries:
       Occupied  (A1) (A1) (B2) (A1) (B1)
       Virtual   (A1) (B2) (A1) (B1) (A1) (B2) (B2) (A1) (A2) (B1)
                 (A1) (A1) (B2) (B2) (B2) (A1) (A1) (B1) (A2) (B1)
                 (A1) (A1) (B1) (B2) (A1) (A2) (B2) (A1) (B2) (B1)
                 (B2) (B2) (A2) (A1) (A1) (A2) (B1) (A1) (B2) (B2)
                 (A1) (B1) (A2) (A1) (A1) (B1) (B2) (A1) (B2) (B1)
                 (B2) (A1) (A2) (A1) (B2) (B1) (A1) (B1) (A2) (A1)
                 (B2) (B1) (A2) (B2) (A1) (B2) (B2) (A2) (A1) (B2)
                 (B1) (A1) (A1) (B2) (B1) (B1) (A2) (A1) (B2) (B1)
                 (A1) (A2) (A1) (A1) (B2) (B2) (A1)
 The electronic state of the initial guess is 1-A1.
 Leave Link  401 at Wed Feb  8 13:47:28 2023, MaxMem=   754974720 cpu:               6.7 elap:               3.4
 (Enter /opt/cluster/programs/g16-c.01/g16/l502.exe)
 Keep R1 ints in memory in symmetry-blocked form, NReq=11496777.
 FoFCou: FMM=F IPFlag=           0 FMFlag=           0 FMFlg1=           0
         NFxFlg=           0 DoJE=F BraDBF=F KetDBF=F FulRan=T
         wScrn=  0.000000 ICntrl=       600 IOpCl=  0 I1Cent=           0 NGrid=           0
         NMat0=    1 NMatS0=   4278 NMatT0=    0 NMatD0=    1 NMtDS0=    0 NMtDT0=    0
 Petite list used in FoFCou.
 Closed shell SCF:
 Using DIIS extrapolation, IDIIS=  1040.
 NGot=   754974720 LenX=   752607631 LenY=   752596165
 Requested convergence on RMS density matrix=1.00D-08 within 200 cycles.
 Requested convergence on MAX density matrix=1.00D-06.
 Requested convergence on             energy=1.00D-06.
 No special actions if energy rises.

 Cycle   1  Pass 1  IDiag  1:
 E= -75.9552427390208    
 DIIS: error= 4.91D-02 at cycle   1 NSaved=   1.
 NSaved= 1 IEnMin= 1 EnMin= -75.9552427390208     IErMin= 1 ErrMin= 4.91D-02
 ErrMax= 4.91D-02  0.00D+00 EMaxC= 1.00D-01 BMatC= 2.16D-01 BMatP= 2.16D-01
 IDIUse=3 WtCom= 5.09D-01 WtEn= 4.91D-01
 Coeff-Com:  0.100D+01
 Coeff-En:   0.100D+01
 Coeff:      0.100D+01
 Gap=     0.451 Goal=   None    Shift=    0.000
 GapD=    0.451 DampG=2.000 DampE=0.500 DampFc=1.0000 IDamp=-1.
 RMSDP=2.25D-03 MaxDP=5.11D-02              OVMax= 1.25D-01

 Cycle   2  Pass 1  IDiag  1:
 E= -76.0134351670681     Delta-E=       -0.058192428047 Rises=F Damp=F
 DIIS: error= 2.94D-02 at cycle   2 NSaved=   2.
 NSaved= 2 IEnMin= 2 EnMin= -76.0134351670681     IErMin= 2 ErrMin= 2.94D-02
 ErrMax= 2.94D-02  0.00D+00 EMaxC= 1.00D-01 BMatC= 6.08D-02 BMatP= 2.16D-01
 IDIUse=3 WtCom= 7.06D-01 WtEn= 2.94D-01
 Coeff-Com:  0.320D+00 0.680D+00
 Coeff-En:   0.176D+00 0.824D+00
 Coeff:      0.278D+00 0.722D+00
 Gap=     0.572 Goal=   None    Shift=    0.000
 RMSDP=1.31D-03 MaxDP=3.55D-02 DE=-5.82D-02 OVMax= 6.39D-02

 Cycle   3  Pass 1  IDiag  1:
 E= -76.0488657989686     Delta-E=       -0.035430631901 Rises=F Damp=F
 DIIS: error= 5.98D-03 at cycle   3 NSaved=   3.
 NSaved= 3 IEnMin= 3 EnMin= -76.0488657989686     IErMin= 3 ErrMin= 5.98D-03
 ErrMax= 5.98D-03  0.00D+00 EMaxC= 1.00D-01 BMatC= 2.43D-03 BMatP= 6.08D-02
 IDIUse=3 WtCom= 9.40D-01 WtEn= 5.98D-02
 Coeff-Com: -0.295D-01 0.134D+00 0.895D+00
 Coeff-En:   0.000D+00 0.000D+00 0.100D+01
 Coeff:     -0.277D-01 0.126D+00 0.902D+00
 Gap=     0.546 Goal=   None    Shift=    0.000
 RMSDP=1.96D-04 MaxDP=3.82D-03 DE=-3.54D-02 OVMax= 1.13D-02

 Cycle   4  Pass 1  IDiag  1:
 E= -76.0503489805599     Delta-E=       -0.001483181591 Rises=F Damp=F
 DIIS: error= 4.20D-04 at cycle   4 NSaved=   4.
 NSaved= 4 IEnMin= 4 EnMin= -76.0503489805599     IErMin= 4 ErrMin= 4.20D-04
 ErrMax= 4.20D-04  0.00D+00 EMaxC= 1.00D-01 BMatC= 8.22D-06 BMatP= 2.43D-03
 IDIUse=3 WtCom= 9.96D-01 WtEn= 4.20D-03
 Coeff-Com:  0.687D-02-0.476D-01-0.259D+00 0.130D+01
 Coeff-En:   0.000D+00 0.000D+00 0.000D+00 0.100D+01
 Coeff:      0.684D-02-0.474D-01-0.258D+00 0.130D+01
 Gap=     0.547 Goal=   None    Shift=    0.000
 RMSDP=3.20D-05 MaxDP=5.99D-04 DE=-1.48D-03 OVMax= 1.90D-03

 Cycle   5  Pass 1  IDiag  1:
 E= -76.0503647196619     Delta-E=       -0.000015739102 Rises=F Damp=F
 DIIS: error= 1.25D-04 at cycle   5 NSaved=   5.
 NSaved= 5 IEnMin= 5 EnMin= -76.0503647196619     IErMin= 5 ErrMin= 1.25D-04
 ErrMax= 1.25D-04  0.00D+00 EMaxC= 1.00D-01 BMatC= 4.06D-07 BMatP= 8.22D-06
 IDIUse=3 WtCom= 9.99D-01 WtEn= 1.25D-03
 Coeff-Com: -0.392D-03 0.523D-02 0.295D-01-0.341D+00 0.131D+01
 Coeff-En:   0.000D+00 0.000D+00 0.000D+00 0.000D+00 0.100D+01
 Coeff:     -0.391D-03 0.522D-02 0.295D-01-0.340D+00 0.131D+01
 Gap=     0.547 Goal=   None    Shift=    0.000
 RMSDP=8.74D-06 MaxDP=1.74D-04 DE=-1.57D-05 OVMax= 5.42D-04

 Cycle   6  Pass 1  IDiag  1:
 E= -76.0503656612363     Delta-E=       -0.000000941574 Rises=F Damp=F
 DIIS: error= 1.64D-05 at cycle   6 NSaved=   6.
 NSaved= 6 IEnMin= 6 EnMin= -76.0503656612363     IErMin= 6 ErrMin= 1.64D-05
 ErrMax= 1.64D-05  0.00D+00 EMaxC= 1.00D-01 BMatC= 1.09D-08 BMatP= 4.06D-07
 IDIUse=1 WtCom= 1.00D+00 WtEn= 0.00D+00
 Coeff-Com: -0.763D-04-0.250D-03-0.285D-02 0.767D-01-0.440D+00 0.137D+01
 Coeff:     -0.763D-04-0.250D-03-0.285D-02 0.767D-01-0.440D+00 0.137D+01
 Gap=     0.547 Goal=   None    Shift=    0.000
 RMSDP=1.41D-06 MaxDP=3.51D-05 DE=-9.42D-07 OVMax= 9.34D-05

 Cycle   7  Pass 1  IDiag  1:
 E= -76.0503656875333     Delta-E=       -0.000000026297 Rises=F Damp=F
 DIIS: error= 3.00D-06 at cycle   7 NSaved=   7.
 NSaved= 7 IEnMin= 7 EnMin= -76.0503656875333     IErMin= 7 ErrMin= 3.00D-06
 ErrMax= 3.00D-06  0.00D+00 EMaxC= 1.00D-01 BMatC= 2.38D-10 BMatP= 1.09D-08
 IDIUse=1 WtCom= 1.00D+00 WtEn= 0.00D+00
 Coeff-Com:  0.273D-04-0.223D-04 0.319D-03-0.154D-01 0.993D-01-0.414D+00
 Coeff-Com:  0.133D+01
 Coeff:      0.273D-04-0.223D-04 0.319D-03-0.154D-01 0.993D-01-0.414D+00
 Coeff:      0.133D+01
 Gap=     0.547 Goal=   None    Shift=    0.000
 RMSDP=2.10D-07 MaxDP=5.17D-06 DE=-2.63D-08 OVMax= 1.67D-05

 Cycle   8  Pass 1  IDiag  1:
 E= -76.0503656881663     Delta-E=       -0.000000000633 Rises=F Damp=F
 DIIS: error= 3.98D-07 at cycle   8 NSaved=   8.
 NSaved= 8 IEnMin= 8 EnMin= -76.0503656881663     IErMin= 8 ErrMin= 3.98D-07
 ErrMax= 3.98D-07  0.00D+00 EMaxC= 1.00D-01 BMatC= 5.97D-12 BMatP= 2.38D-10
 IDIUse=1 WtCom= 1.00D+00 WtEn= 0.00D+00
 Coeff-Com: -0.163D-05 0.111D-04 0.434D-04-0.359D-04 0.980D-04 0.153D-01
 Coeff-Com: -0.214D+00 0.120D+01
 Coeff:     -0.163D-05 0.111D-04 0.434D-04-0.359D-04 0.980D-04 0.153D-01
 Coeff:     -0.214D+00 0.120D+01
 Gap=     0.547 Goal=   None    Shift=    0.000
 RMSDP=4.58D-08 MaxDP=1.16D-06 DE=-6.33D-10 OVMax= 2.53D-06

 Cycle   9  Pass 1  IDiag  1:
 E= -76.0503656881807     Delta-E=       -0.000000000014 Rises=F Damp=F
 DIIS: error= 5.89D-08 at cycle   9 NSaved=   9.
 NSaved= 9 IEnMin= 9 EnMin= -76.0503656881807     IErMin= 9 ErrMin= 5.89D-08
 ErrMax= 5.89D-08  0.00D+00 EMaxC= 1.00D-01 BMatC= 1.40D-13 BMatP= 5.97D-12
 IDIUse=1 WtCom= 1.00D+00 WtEn= 0.00D+00
 Coeff-Com: -0.799D-06 0.367D-06-0.144D-04 0.503D-03-0.337D-02 0.128D-01
 Coeff-Com: -0.220D-01-0.915D-01 0.110D+01
 Coeff:     -0.799D-06 0.367D-06-0.144D-04 0.503D-03-0.337D-02 0.128D-01
 Coeff:     -0.220D-01-0.915D-01 0.110D+01
 Gap=     0.547 Goal=   None    Shift=    0.000
 RMSDP=6.76D-09 MaxDP=1.47D-07 DE=-1.44D-11 OVMax= 2.46D-07

 SCF Done:  E(RHF) =  -76.0503656882     A.U. after    9 cycles
            NFock=  9  Conv=0.68D-08     -V/T= 1.9981
 KE= 7.619286541556D+01 PE=-2.001228417847D+02 EE= 3.815512293286D+01
 Leave Link  502 at Wed Feb  8 13:47:41 2023, MaxMem=   754974720 cpu:              20.9 elap:              10.4
 (Enter /opt/cluster/programs/g16-c.01/g16/l801.exe)
 Windowed orbitals will be sorted by symmetry type.
 ExpMin= 2.53D-02 ExpMax= 1.53D+04 ExpMxC= 5.22D+02 IAcc=3 IRadAn=         5 AccDes= 0.00D+00
 HarFok:  IExCor=  205 AccDes= 0.00D+00 IRadAn=         5 IDoV=-2 UseB2=F ITyADJ=14
 ICtDFT= 12500011 ScaDFX=  1.000000  1.000000  1.000000  1.000000
 Largest valence mixing into a core orbital is  1.09D-04
 Largest core mixing into a valence orbital is  1.51D-05
 Range of M.O.s used for correlation:     2    92
 NBasis=    92 NAE=     5 NBE=     5 NFC=     1 NFV=     0
 NROrb=     91 NOA=     4 NOB=     4 NVA=    87 NVB=    87

 **** Warning!!: The largest alpha MO coefficient is  0.17033075D+02

 Leave Link  801 at Wed Feb  8 13:47:45 2023, MaxMem=   754974720 cpu:               0.6 elap:               0.3
 (Enter /opt/cluster/programs/g16-c.01/g16/l804.exe)
 Closed-shell transformation, MDV=   754974720 ITran=4 ISComp=2.
 Unit  1 TFree=        277513 TCopy=        242092.
 Semi-Direct transformation.
 ModeAB=           4 MOrb=             4 LenV=     754588990
 LASXX=       368428 LTotXX=      368428 LenRXX=      751146
 LTotAB=      382718 MaxLAS=     1379560 LenRXY=           0
 NonZer=     1119574 LenScr=     2357760 LnRSAI=     1379560
 LnScr1=     2758656 LExtra=           0 Total=      7247122
 MaxDsk=          -1 SrtSym=           T ITran=            4
 DoSDTr:  NPSUse=  4
 JobTyp=0 Pass  1:  I=   1 to   4.
 (rs|ai) integrals will be sorted in core.
 Complete sort for first half transformation.
 First half transformation complete.
 Complete sort for second half transformation.
 Second half transformation complete.
 Spin components of T(2) and E(2):
     alpha-alpha T2 =       0.7829522987D-02 E2=     -0.3236534749D-01
     alpha-beta  T2 =       0.4506265182D-01 E2=     -0.2012708542D+00
     beta-beta   T2 =       0.7829522987D-02 E2=     -0.3236534749D-01
 ANorm=    0.1029913442D+01
 E2 =    -0.2660015492D+00 EUMP2 =    -0.76316367237367D+02
 Leave Link  804 at Wed Feb  8 13:47:53 2023, MaxMem=   754974720 cpu:               8.0 elap:               4.0
 (Enter /opt/cluster/programs/g16-c.01/g16/l913.exe)
 CIDS:  MDV=   754974720.
 Frozen-core window:  NFC=   1 NFV=   0.
 IFCWin=0 IBDFC=1 NFBD=     0     0 NFCmp=     0     0 NFFFC=     0     0
 Using DD3R+UMP44R for 1st iteration.
 Using DD4RQ for 2nd and later iterations.
 Keep R2 and R3 ints in memory in symmetry-blocked form, NReq=11500115.
 FoFCou: FMM=F IPFlag=           0 FMFlag=           0 FMFlg1=           0
         NFxFlg=           0 DoJE=F BraDBF=F KetDBF=F FulRan=T
         wScrn=  0.000000 ICntrl=       600 IOpCl=  0 I1Cent=           0 NGrid=           0
         NMat0=    1 NMatS0=   4278 NMatT0=    0 NMatD0=    1 NMtDS0=    0 NMtDT0=    0
 Petite list used in FoFCou.
 CIDS: In Core Option IDoMem=           1.
 CCSD(T)
 =======
 Iterations=  50 Convergence= 0.100D-06
 Produce multiple copies of IABC intergrals
 Iteration Nr.   1
 **********************
 DD1Dir will call FoFMem   1 times, MxPair=        20
 NAB=    10 NAA=     0 NBB=     0.
 MP4(R+Q)=  0.39380907D-02
 Maximum subspace dimension=  5
 A-vector RMS=  2.6771006D-03 Max=  1.0907017D-02 conv= 1.00D-05.
 RLE energy=       -0.2653151612
 E3=       -0.32894674D-02        EUMP3=      -0.76319656705D+02
 E4(DQ)=   -0.34688881D-03        UMP4(DQ)=   -0.76320003594D+02
 E4(SDQ)=  -0.20582957D-02        UMP4(SDQ)=  -0.76321715000D+02
 VARIATIONAL ENERGIES WITH THE FIRST-ORDER WAVEFUNCTION:
 DE(Corr)= -0.26531339     E(Corr)=     -76.315679079    
 NORM(A)=   0.10298106D+01
 Iteration Nr.   2
 **********************
 DD1Dir will call FoFMem   1 times, MxPair=        20
 NAB=    10 NAA=     0 NBB=     0.
 A-vector RMS=  2.7185424D-04 Max=  1.9598887D-03 conv= 1.00D-05.
 RLE energy=       -0.2706087297
 DE(Corr)= -0.27026352     E(CORR)=     -76.320629208     Delta=-4.95D-03
 NORM(A)=   0.10316582D+01
 Iteration Nr.   3
 **********************
 DD1Dir will call FoFMem   1 times, MxPair=        20
 NAB=    10 NAA=     0 NBB=     0.
 A-vector RMS=  3.5745151D-04 Max=  1.9420647D-03 conv= 1.00D-05.
 RLE energy=       -0.2708712494
 DE(Corr)= -0.27055163     E(CORR)=     -76.320917317     Delta=-2.88D-04
 NORM(A)=   0.10319965D+01
 Iteration Nr.   4
 **********************
 DD1Dir will call FoFMem   1 times, MxPair=        20
 NAB=    10 NAA=     0 NBB=     0.
 A-vector RMS=  5.2340830D-05 Max=  3.1850169D-04 conv= 1.00D-05.
 RLE energy=       -0.2708986055
 DE(Corr)= -0.27087563     E(CORR)=     -76.321241317     Delta=-3.24D-04
 NORM(A)=   0.10320892D+01
 Iteration Nr.   5
 **********************
 DD1Dir will call FoFMem   1 times, MxPair=        20
 NAB=    10 NAA=     0 NBB=     0.
 A-vector RMS=  2.5893574D-05 Max=  1.6699808D-04 conv= 1.00D-05.
 RLE energy=       -0.2709081193
 DE(Corr)= -0.27090396     E(CORR)=     -76.321269652     Delta=-2.83D-05
 NORM(A)=   0.10321073D+01
 Iteration Nr.   6
 **********************
 DD1Dir will call FoFMem   1 times, MxPair=        20
 NAB=    10 NAA=     0 NBB=     0.
 A-vector RMS=  6.0931359D-06 Max=  3.7682700D-05 conv= 1.00D-05.
 RLE energy=       -0.2709052333
 DE(Corr)= -0.27090595     E(CORR)=     -76.321271636     Delta=-1.98D-06
 NORM(A)=   0.10321088D+01
 Iteration Nr.   7
 **********************
 DD1Dir will call FoFMem   1 times, MxPair=        20
 NAB=    10 NAA=     0 NBB=     0.
 A-vector RMS=  1.8864090D-06 Max=  1.0562213D-05 conv= 1.00D-05.
 RLE energy=       -0.2709051961
 DE(Corr)= -0.27090592     E(CORR)=     -76.321271604     Delta= 3.18D-08
 NORM(A)=   0.10321093D+01
 Iteration Nr.   8
 **********************
 DD1Dir will call FoFMem   1 times, MxPair=        20
 NAB=    10 NAA=     0 NBB=     0.
 A-vector RMS=  7.3407913D-07 Max=  4.9375470D-06 conv= 1.00D-05.
 RLE energy=       -0.2709056562
 DE(Corr)= -0.27090573     E(CORR)=     -76.321271418     Delta= 1.86D-07
 NORM(A)=   0.10321096D+01
 Iteration Nr.   9
 **********************
 DD1Dir will call FoFMem   1 times, MxPair=        20
 NAB=    10 NAA=     0 NBB=     0.
 A-vector RMS=  1.3911289D-07 Max=  8.1672043D-07 conv= 1.00D-05.
 RLE energy=       -0.2709057282
 DE(Corr)= -0.27090574     E(CORR)=     -76.321271426     Delta=-8.23D-09
 NORM(A)=   0.10321097D+01
 CI/CC converged in    9 iterations to DelEn=-8.23D-09 Conv= 1.00D-07 ErrA1= 1.39D-07 Conv= 1.00D-05
 Wavefunction amplitudes converged. E(Corr)=     -76.321271426    
 Largest amplitude= 1.99D-02
 IPart=  1 IA=    6   11.23% done.
 IPart=  4 IA=   11   21.79% done.
 IPart=  3 IA=   16   31.68% done.
 IPart=  4 IA=   21   40.90% done.
 IPart=  4 IA=   27   51.08% done.
 IPart=  2 IA=   33   60.30% done.
 IPart=  3 IA=   41   71.10% done.
 IPart=  2 IA=   49   80.19% done.
 IPart=  1 IA=   61   90.62% done.
 Time for triples=        4.86 seconds.
 T4(CCSD)= -0.85680767D-02
 T5(CCSD)=  0.28900213D-03
 CCSD(T)= -0.76329550501D+02
 Discarding MO integrals.
 Leave Link  913 at Wed Feb  8 13:48:39 2023, MaxMem=   754974720 cpu:              90.3 elap:              45.1
 (Enter /opt/cluster/programs/g16-c.01/g16/l601.exe)
 Copying SCF densities to generalized density rwf, IOpCl= 0 IROHF=0.

 **********************************************************************

            Population analysis using the SCF Density.

 **********************************************************************

 Orbital symmetries:
       Occupied  (A1) (A1) (B2) (A1) (B1)
       Virtual   (A1) (B2) (A1) (B1) (A1) (B2) (B2) (A1) (A2) (B1)
                 (A1) (B2) (A1) (B2) (B2) (A1) (A1) (B1) (A2) (A1)
                 (B1) (A1) (B1) (B2) (A2) (A1) (B2) (A1) (B2) (B1)
                 (B2) (A2) (A1) (B2) (A1) (A2) (B1) (A1) (B2) (B2)
                 (A1) (B1) (A2) (A1) (A1) (B1) (B2) (A1) (B2) (B1)
                 (B2) (A1) (A2) (A1) (B2) (B1) (A1) (B1) (A2) (A1)
                 (A2) (B2) (B1) (B2) (A1) (B2) (B2) (A2) (A1) (B2)
                 (B1) (A1) (A1) (B2) (B1) (B1) (B2) (A1) (A2) (B1)
                 (A2) (A1) (A1) (A1) (B2) (B2) (A1)
 The electronic state is 1-A1.
 Alpha  occ. eigenvalues --  -20.56334  -1.39286  -0.71235  -0.62304  -0.51828
 Alpha virt. eigenvalues --    0.02895   0.04871   0.13363   0.15849   0.17835
 Alpha virt. eigenvalues --    0.18606   0.22804   0.24962   0.27064   0.28977
 Alpha virt. eigenvalues --    0.30454   0.37229   0.44363   0.47617   0.59422
 Alpha virt. eigenvalues --    0.67399   0.70414   0.72450   0.73413   0.85620
 Alpha virt. eigenvalues --    0.86639   0.89424   0.90103   0.92308   0.92945
 Alpha virt. eigenvalues --    0.94450   0.95640   1.04357   1.05995   1.08131
 Alpha virt. eigenvalues --    1.11756   1.19639   1.21441   1.24782   1.45412
 Alpha virt. eigenvalues --    1.54210   1.57818   1.79527   1.96403   2.02336
 Alpha virt. eigenvalues --    2.19318   2.27875   2.33011   2.33131   2.40721
 Alpha virt. eigenvalues --    2.42668   2.45418   2.54307   2.63083   2.68856
 Alpha virt. eigenvalues --    2.72217   2.87395   2.90564   3.59895   3.75738
 Alpha virt. eigenvalues --    4.04879   4.07802   4.15927   4.17817   4.42777
 Alpha virt. eigenvalues --    4.43071   4.44448   4.44895   4.64107   4.82876
 Alpha virt. eigenvalues --    5.06445   5.13782   5.27403   5.35051   5.55846
 Alpha virt. eigenvalues --    5.69997   5.71865   6.32095   6.50195   6.71449
 Alpha virt. eigenvalues --    7.18413   7.22432   7.26236   7.29976   7.34519
 Alpha virt. eigenvalues --    7.49046   7.49322   7.61142   7.80668   8.24055
 Alpha virt. eigenvalues --    9.13522  17.49887
          Condensed to atoms (all electrons):
               1          2          3
     1  O    7.818816   0.274431   0.274431
     2  H    0.274431   0.532350   0.009381
     3  H    0.274431   0.009381   0.532350
 Mulliken charges:
               1
     1  O   -0.367677
     2  H    0.183839
     3  H    0.183839
 Sum of Mulliken charges =   0.00000
 Mulliken charges with hydrogens summed into heavy atoms:
               1
     1  O    0.000000
 Electronic spatial extent (au):  <R**2>=             18.8130
 Charge=              0.0000 electrons
 Dipole moment (field-independent basis, Debye):
    X=             -0.0000    Y=              0.0000    Z=             -2.1514  Tot=              2.1514
 Quadrupole moment (field-independent basis, Debye-Ang):
   XX=             -7.4285   YY=             -4.9191   ZZ=             -5.8063
   XY=              0.0000   XZ=              0.0000   YZ=             -0.0000
 Traceless Quadrupole moment (field-independent basis, Debye-Ang):
   XX=             -1.3772   YY=              1.1322   ZZ=              0.2450
   XY=              0.0000   XZ=              0.0000   YZ=             -0.0000
 Octapole moment (field-independent basis, Debye-Ang**2):
  XXX=              0.0000  YYY=              0.0000  ZZZ=             -1.4465  XYY=             -0.0000
  XXY=              0.0000  XXZ=             -0.3075  XZZ=              0.0000  YZZ=              0.0000
  YYZ=             -1.1785  XYZ=             -0.0000
 Hexadecapole moment (field-independent basis, Debye-Ang**3):
 XXXX=             -6.5099 YYYY=             -5.9770 ZZZZ=             -6.8458 XXXY=             -0.0000
 XXXZ=             -0.0000 YYYX=             -0.0000 YYYZ=             -0.0000 ZZZX=             -0.0000
 ZZZY=             -0.0000 XXYY=             -2.2508 XXZZ=             -2.2996 YYZZ=             -1.7462
 XXYZ=              0.0000 YYXZ=              0.0000 ZZXY=              0.0000
 N-N= 9.724487748103D+00 E-N=-2.001228414000D+02  KE= 7.619286541556D+01
 Symmetry A1   KE= 6.795019648910D+01
 Symmetry A2   KE=-8.883436586095D-20
 Symmetry B1   KE= 4.472419808372D+00
 Symmetry B2   KE= 3.770249118095D+00
 Leave Link  601 at Wed Feb  8 13:48:41 2023, MaxMem=   754974720 cpu:               1.1 elap:               0.6
 (Enter /opt/cluster/programs/g16-c.01/g16/l9999.exe)
 Unable to Open any file for archive entry.
 1\1\GINC-NODE60\SP\RCCSD(T)-FC\Aug-CC-pVTZ\H2O1\BOITTIER\08-Feb-2023\0
 \\#P CCSD(T)/aug-cc-pVTZ scf(maxcycle=200)\\Gaussian input\\0,1\O,0,0.
 ,0.11751,0.\H,0,0.7183372325,-0.4395112028,0.\H,0,-0.5626457724,-0.596
 430288,0.\\Version=ES64L-G16RevC.01\State=1-A1\HF=-76.0503657\MP2=-76.
 3163672\MP3=-76.3196567\MP4D=-76.3239417\MP4DQ=-76.3200036\MP4SDQ=-76.
 321715\CCSD=-76.3212714\CCSD(T)=-76.3295505\RMSD=6.757e-09\PG=C02V [C2
 (O1),SGV(H2)]\\@
 The archive entry for this job was punched.


 THE MOST INCOMPREHENSIBLE THING ABOUT THE WORLD
 IS THAT IT IS COMPREHENSIBLE. -- A. EINSTEIN
 Job cpu time:       0 days  0 hours  2 minutes 16.3 seconds.
 Elapsed time:       0 days  0 hours  1 minutes  9.3 seconds.
 File lengths (MBytes):  RWF=     64 Int=      0 D2E=      0 Chk=      2 Scr=      1
 Normal termination of Gaussian 16 at Wed Feb  8 13:48:44 2023.
