 Entering Gaussian System, Link 0=/opt/cluster/programs/g16-c.01/g16/g16
 Input=/scratch/boittier/jobs/tmp.7261685/gaussian_21_water_ccsdt_atz.com
 Output=/scratch/boittier/jobs/tmp.7261685/gaussian_21_water_ccsdt_atz.out
 Initial command:
 /opt/cluster/programs/g16-c.01/g16/l1.exe "/scratch/boittier/jobs/tmp.7261685/Gau-172322.inp" -scrdir="/scratch/boittier/jobs/tmp.7261685/"
 Entering Link 1 = /opt/cluster/programs/g16-c.01/g16/l1.exe PID=    172323.
  
 Copyright (c) 1988-2019, Gaussian, Inc.  All Rights Reserved.
  
 This is part of the Gaussian(R) 16 program.  It is based on
 the Gaussian(R) 09 system (copyright 2009, Gaussian, Inc.),
 the Gaussian(R) 03 system (copyright 2003, Gaussian, Inc.),
 the Gaussian(R) 98 system (copyright 1998, Gaussian, Inc.),
 the Gaussian(R) 94 system (copyright 1995, Gaussian, Inc.),
 the Gaussian 92(TM) system (copyright 1992, Gaussian, Inc.),
 the Gaussian 90(TM) system (copyright 1990, Gaussian, Inc.),
 the Gaussian 88(TM) system (copyright 1988, Gaussian, Inc.),
 the Gaussian 86(TM) system (copyright 1986, Carnegie Mellon
 University), and the Gaussian 82(TM) system (copyright 1983,
 Carnegie Mellon University). Gaussian is a federally registered
 trademark of Gaussian, Inc.
  
 This software contains proprietary and confidential information,
 including trade secrets, belonging to Gaussian, Inc.
  
 This software is provided under written license and may be
 used, copied, transmitted, or stored only in accord with that
 written license.
  
 The following legend is applicable only to US Government
 contracts under FAR:
  
                    RESTRICTED RIGHTS LEGEND
  
 Use, reproduction and disclosure by the US Government is
 subject to restrictions as set forth in subparagraphs (a)
 and (c) of the Commercial Computer Software - Restricted
 Rights clause in FAR 52.227-19.
  
 Gaussian, Inc.
 340 Quinnipiac St., Bldg. 40, Wallingford CT 06492
  
  
 ---------------------------------------------------------------
 Warning -- This program may not be used in any manner that
 competes with the business of Gaussian, Inc. or will provide
 assistance to any competitor of Gaussian, Inc.  The licensee
 of this program is prohibited from giving any competitor of
 Gaussian, Inc. access to this program.  By using this program,
 the user acknowledges that Gaussian, Inc. is engaged in the
 business of creating and licensing software in the field of
 computational chemistry and represents and warrants to the
 licensee that it is not a competitor of Gaussian, Inc. and that
 it will not use this program in any manner prohibited above.
 ---------------------------------------------------------------
  

 Cite this work as:
 Gaussian 16, Revision C.01,
 M. J. Frisch, G. W. Trucks, H. B. Schlegel, G. E. Scuseria, 
 M. A. Robb, J. R. Cheeseman, G. Scalmani, V. Barone, 
 G. A. Petersson, H. Nakatsuji, X. Li, M. Caricato, A. V. Marenich, 
 J. Bloino, B. G. Janesko, R. Gomperts, B. Mennucci, H. P. Hratchian, 
 J. V. Ortiz, A. F. Izmaylov, J. L. Sonnenberg, D. Williams-Young, 
 F. Ding, F. Lipparini, F. Egidi, J. Goings, B. Peng, A. Petrone, 
 T. Henderson, D. Ranasinghe, V. G. Zakrzewski, J. Gao, N. Rega, 
 G. Zheng, W. Liang, M. Hada, M. Ehara, K. Toyota, R. Fukuda, 
 J. Hasegawa, M. Ishida, T. Nakajima, Y. Honda, O. Kitao, H. Nakai, 
 T. Vreven, K. Throssell, J. A. Montgomery, Jr., J. E. Peralta, 
 F. Ogliaro, M. J. Bearpark, J. J. Heyd, E. N. Brothers, K. N. Kudin, 
 V. N. Staroverov, T. A. Keith, R. Kobayashi, J. Normand, 
 K. Raghavachari, A. P. Rendell, J. C. Burant, S. S. Iyengar, 
 J. Tomasi, M. Cossi, J. M. Millam, M. Klene, C. Adamo, R. Cammi, 
 J. W. Ochterski, R. L. Martin, K. Morokuma, O. Farkas, 
 J. B. Foresman, and D. J. Fox, Gaussian, Inc., Wallingford CT, 2019.
 
 ******************************************
 Gaussian 16:  ES64L-G16RevC.01  3-Jul-2019
                 8-Feb-2023 
 ******************************************
 %nproc=4
 Will use up to    4 processors via shared memory.
 %mem=5760MB
 %chk=gaussian_21_water_ccsdt_atz.chk
 ----------------------------------------
 #P CCSD(T)/aug-cc-pVTZ scf(maxcycle=200)
 ----------------------------------------
 1/38=1,172=1/1;
 2/12=2,17=6,18=5,40=1/2;
 3/5=16,6=1,7=10,11=9,25=1,30=1/1,2,3;
 4//1;
 5/5=2,7=200,38=5/2;
 8/6=4,9=120000,10=1/1,4;
 9/5=7,14=2/13;
 6/7=2,8=2,9=2,10=2/1;
 99/5=1,9=1/99;
 Leave Link    1 at Wed Feb  8 13:48:52 2023, MaxMem=   754974720 cpu:               0.1 elap:               0.0
 (Enter /opt/cluster/programs/g16-c.01/g16/l101.exe)
 --------------
 Gaussian input
 --------------
 Symbolic Z-matrix:
 Charge =  0 Multiplicity = 1
 O                     0.        0.11751   0. 
 H                     0.71834  -0.43951   0. 
 H                    -0.53961  -0.67527   0. 
 
 ITRead=  0  0  0
 MicOpt= -1 -1 -1
 NAtoms=      3 NQM=        3 NQMF=       0 NMMI=      0 NMMIF=      0
                NMic=       0 NMicF=      0.
                    Isotopes and Nuclear Properties:
 (Nuclear quadrupole moments (NQMom) in fm**2, nuclear magnetic moments (NMagM)
  in nuclear magnetons)

  Atom         1           2           3
 IAtWgt=          16           1           1
 AtmWgt=  15.9949146   1.0078250   1.0078250
 NucSpn=           0           1           1
 AtZEff=  -0.0000000  -0.0000000  -0.0000000
 NQMom=    0.0000000   0.0000000   0.0000000
 NMagM=    0.0000000   2.7928460   2.7928460
 AtZNuc=   8.0000000   1.0000000   1.0000000
 Leave Link  101 at Wed Feb  8 13:48:52 2023, MaxMem=   754974720 cpu:               0.9 elap:               0.3
 (Enter /opt/cluster/programs/g16-c.01/g16/l202.exe)
                          Input orientation:                          
 ---------------------------------------------------------------------
 Center     Atomic      Atomic             Coordinates (Angstroms)
 Number     Number       Type             X           Y           Z
 ---------------------------------------------------------------------
      1          8           0        0.000000    0.117510    0.000000
      2          1           0        0.718337   -0.439511    0.000000
      3          1           0       -0.539607   -0.675273    0.000000
 ---------------------------------------------------------------------
                    Distance matrix (angstroms):
                    1          2          3
     1  O    0.000000
     2  H    0.909000   0.000000
     3  H    0.959000   1.279847   0.000000
 Stoichiometry    H2O
 Framework group  CS[SG(H2O)]
 Deg. of freedom     3
 Full point group                 CS      NOp   2
 Largest Abelian subgroup         CS      NOp   2
 Largest concise Abelian subgroup C1      NOp   1
                         Standard orientation:                         
 ---------------------------------------------------------------------
 Center     Atomic      Atomic             Coordinates (Angstroms)
 Number     Number       Type             X           Y           Z
 ---------------------------------------------------------------------
      1          8           0        0.000000    0.136159    0.000000
      2          1           0        0.639004   -0.510336    0.000000
      3          1           0       -0.639004   -0.578933    0.000000
 ---------------------------------------------------------------------
 Rotational constants (GHZ):         645.3309111         579.6026551         305.3516695
 Leave Link  202 at Wed Feb  8 13:48:53 2023, MaxMem=   754974720 cpu:               0.1 elap:               0.1
 (Enter /opt/cluster/programs/g16-c.01/g16/l301.exe)
 Standard basis: Aug-CC-pVTZ (5D, 7F)
 Ernie: Thresh=  0.10000D-02 Tol=  0.10000D-05 Strict=F.
 Ernie:  3 primitive shells out of 52 were deleted.
 There are    73 symmetry adapted cartesian basis functions of A'  symmetry.
 There are    32 symmetry adapted cartesian basis functions of A"  symmetry.
 There are    62 symmetry adapted basis functions of A'  symmetry.
 There are    30 symmetry adapted basis functions of A"  symmetry.
    92 basis functions,   126 primitive gaussians,   105 cartesian basis functions
     5 alpha electrons        5 beta electrons
       nuclear repulsion energy         9.4851028225 Hartrees.
 IExCor=    0 DFT=F Ex=HF Corr=None ExCW=0 ScaHFX=  1.000000
 ScaDFX=  1.000000  1.000000  1.000000  1.000000 ScalE2=  1.000000  1.000000
 IRadAn=      5 IRanWt=     -1 IRanGd=            0 ICorTp=0 IEmpDi=  4
 NAtoms=    3 NActive=    3 NUniq=    3 SFac= 1.00D+00 NAtFMM=   60 NAOKFM=F Big=F
 Integral buffers will be    131072 words long.
 Raffenetti 1 integral format.
 Two-electron integral symmetry is turned on.
 Leave Link  301 at Wed Feb  8 13:48:53 2023, MaxMem=   754974720 cpu:               0.1 elap:               0.0
 (Enter /opt/cluster/programs/g16-c.01/g16/l302.exe)
 NPDir=0 NMtPBC=     1 NCelOv=     1 NCel=       1 NClECP=     1 NCelD=      1
         NCelK=      1 NCelE2=     1 NClLst=     1 CellRange=     0.0.
 One-electron integrals computed using PRISM.
 One-electron integral symmetry used in STVInt
 NBasis=    92 RedAO= T EigKep=  3.13D-04  NBF=    62    30
 NBsUse=    92 1.00D-06 EigRej= -1.00D+00 NBFU=    62    30
 Leave Link  302 at Wed Feb  8 13:48:54 2023, MaxMem=   754974720 cpu:               2.1 elap:               1.1
 (Enter /opt/cluster/programs/g16-c.01/g16/l303.exe)
 DipDrv:  MaxL=1.
 Leave Link  303 at Wed Feb  8 13:48:54 2023, MaxMem=   754974720 cpu:               0.5 elap:               0.2
 (Enter /opt/cluster/programs/g16-c.01/g16/l401.exe)
 ExpMin= 2.53D-02 ExpMax= 1.53D+04 ExpMxC= 5.22D+02 IAcc=3 IRadAn=         5 AccDes= 0.00D+00
 Harris functional with IExCor=  205 and IRadAn=       5 diagonalized for initial guess.
 HarFok:  IExCor=  205 AccDes= 0.00D+00 IRadAn=         5 IDoV= 1 UseB2=F ITyADJ=14
 ICtDFT=  3500011 ScaDFX=  1.000000  1.000000  1.000000  1.000000
 FoFCou: FMM=F IPFlag=           0 FMFlag=      100000 FMFlg1=           0
         NFxFlg=           0 DoJE=T BraDBF=F KetDBF=T FulRan=T
         wScrn=  0.000000 ICntrl=       500 IOpCl=  0 I1Cent=   200000004 NGrid=           0
         NMat0=    1 NMatS0=      1 NMatT0=    0 NMatD0=    1 NMtDS0=    0 NMtDT0=    0
 Petite list used in FoFCou.
 Harris En= -76.1419378419171    
 JPrj=0 DoOrth=F DoCkMO=F.
 Initial guess orbital symmetries:
       Occupied  (A') (A') (A') (A') (A")
       Virtual   (A') (A') (A') (A") (A') (A') (A') (A') (A") (A")
                 (A') (A') (A') (A') (A') (A') (A') (A") (A") (A")
                 (A') (A') (A') (A") (A') (A") (A') (A') (A') (A")
                 (A') (A') (A") (A') (A') (A") (A") (A') (A') (A')
                 (A') (A") (A") (A') (A') (A") (A') (A') (A') (A")
                 (A') (A') (A") (A') (A') (A") (A") (A') (A") (A')
                 (A") (A') (A") (A') (A') (A') (A') (A") (A') (A")
                 (A') (A') (A') (A') (A") (A') (A") (A") (A') (A")
                 (A') (A") (A') (A') (A') (A') (A')
 The electronic state of the initial guess is 1-A'.
 Leave Link  401 at Wed Feb  8 13:48:55 2023, MaxMem=   754974720 cpu:               1.5 elap:               0.5
 (Enter /opt/cluster/programs/g16-c.01/g16/l502.exe)
 Keep R1 ints in memory in symmetry-blocked form, NReq=13818732.
 FoFCou: FMM=F IPFlag=           0 FMFlag=           0 FMFlg1=           0
         NFxFlg=           0 DoJE=F BraDBF=F KetDBF=F FulRan=T
         wScrn=  0.000000 ICntrl=       600 IOpCl=  0 I1Cent=           0 NGrid=           0
         NMat0=    1 NMatS0=   4278 NMatT0=    0 NMatD0=    1 NMtDS0=    0 NMtDT0=    0
 Petite list used in FoFCou.
 Closed shell SCF:
 Using DIIS extrapolation, IDIIS=  1040.
 NGot=   754974720 LenX=   750285684 LenY=   750274218
 Requested convergence on RMS density matrix=1.00D-08 within 200 cycles.
 Requested convergence on MAX density matrix=1.00D-06.
 Requested convergence on             energy=1.00D-06.
 No special actions if energy rises.

 Cycle   1  Pass 1  IDiag  1:
 E= -75.9557604388347    
 DIIS: error= 4.61D-02 at cycle   1 NSaved=   1.
 NSaved= 1 IEnMin= 1 EnMin= -75.9557604388347     IErMin= 1 ErrMin= 4.61D-02
 ErrMax= 4.61D-02  0.00D+00 EMaxC= 1.00D-01 BMatC= 2.09D-01 BMatP= 2.09D-01
 IDIUse=3 WtCom= 5.39D-01 WtEn= 4.61D-01
 Coeff-Com:  0.100D+01
 Coeff-En:   0.100D+01
 Coeff:      0.100D+01
 Gap=     0.454 Goal=   None    Shift=    0.000
 GapD=    0.454 DampG=2.000 DampE=0.500 DampFc=1.0000 IDamp=-1.
 RMSDP=2.22D-03 MaxDP=4.96D-02              OVMax= 1.27D-01

 Cycle   2  Pass 1  IDiag  1:
 E= -76.0101698571464     Delta-E=       -0.054409418312 Rises=F Damp=F
 DIIS: error= 2.89D-02 at cycle   2 NSaved=   2.
 NSaved= 2 IEnMin= 2 EnMin= -76.0101698571464     IErMin= 2 ErrMin= 2.89D-02
 ErrMax= 2.89D-02  0.00D+00 EMaxC= 1.00D-01 BMatC= 6.11D-02 BMatP= 2.09D-01
 IDIUse=3 WtCom= 7.11D-01 WtEn= 2.89D-01
 Coeff-Com:  0.324D+00 0.676D+00
 Coeff-En:   0.198D+00 0.802D+00
 Coeff:      0.287D+00 0.713D+00
 Gap=     0.570 Goal=   None    Shift=    0.000
 RMSDP=1.33D-03 MaxDP=3.63D-02 DE=-5.44D-02 OVMax= 6.44D-02

 Cycle   3  Pass 1  IDiag  1:
 E= -76.0463595672028     Delta-E=       -0.036189710056 Rises=F Damp=F
 DIIS: error= 5.44D-03 at cycle   3 NSaved=   3.
 NSaved= 3 IEnMin= 3 EnMin= -76.0463595672028     IErMin= 3 ErrMin= 5.44D-03
 ErrMax= 5.44D-03  0.00D+00 EMaxC= 1.00D-01 BMatC= 2.39D-03 BMatP= 6.11D-02
 IDIUse=3 WtCom= 9.46D-01 WtEn= 5.44D-02
 Coeff-Com: -0.303D-01 0.132D+00 0.898D+00
 Coeff-En:   0.000D+00 0.000D+00 0.100D+01
 Coeff:     -0.286D-01 0.125D+00 0.904D+00
 Gap=     0.544 Goal=   None    Shift=    0.000
 RMSDP=1.97D-04 MaxDP=3.76D-03 DE=-3.62D-02 OVMax= 1.15D-02

 Cycle   4  Pass 1  IDiag  1:
 E= -76.0478492479738     Delta-E=       -0.001489680771 Rises=F Damp=F
 DIIS: error= 4.54D-04 at cycle   4 NSaved=   4.
 NSaved= 4 IEnMin= 4 EnMin= -76.0478492479738     IErMin= 4 ErrMin= 4.54D-04
 ErrMax= 4.54D-04  0.00D+00 EMaxC= 1.00D-01 BMatC= 9.37D-06 BMatP= 2.39D-03
 IDIUse=3 WtCom= 9.95D-01 WtEn= 4.54D-03
 Coeff-Com:  0.752D-02-0.494D-01-0.277D+00 0.132D+01
 Coeff-En:   0.000D+00 0.000D+00 0.000D+00 0.100D+01
 Coeff:      0.749D-02-0.492D-01-0.276D+00 0.132D+01
 Gap=     0.545 Goal=   None    Shift=    0.000
 RMSDP=3.62D-05 MaxDP=6.29D-04 DE=-1.49D-03 OVMax= 2.05D-03

 Cycle   5  Pass 1  IDiag  1:
 E= -76.0478684365090     Delta-E=       -0.000019188535 Rises=F Damp=F
 DIIS: error= 1.40D-04 at cycle   5 NSaved=   5.
 NSaved= 5 IEnMin= 5 EnMin= -76.0478684365090     IErMin= 5 ErrMin= 1.40D-04
 ErrMax= 1.40D-04  0.00D+00 EMaxC= 1.00D-01 BMatC= 5.01D-07 BMatP= 9.37D-06
 IDIUse=3 WtCom= 9.99D-01 WtEn= 1.40D-03
 Coeff-Com: -0.439D-03 0.526D-02 0.319D-01-0.340D+00 0.130D+01
 Coeff-En:   0.000D+00 0.000D+00 0.000D+00 0.000D+00 0.100D+01
 Coeff:     -0.439D-03 0.525D-02 0.318D-01-0.340D+00 0.130D+01
 Gap=     0.545 Goal=   None    Shift=    0.000
 RMSDP=9.69D-06 MaxDP=2.07D-04 DE=-1.92D-05 OVMax= 6.43D-04

 Cycle   6  Pass 1  IDiag  1:
 E= -76.0478696359586     Delta-E=       -0.000001199450 Rises=F Damp=F
 DIIS: error= 1.92D-05 at cycle   6 NSaved=   6.
 NSaved= 6 IEnMin= 6 EnMin= -76.0478696359586     IErMin= 6 ErrMin= 1.92D-05
 ErrMax= 1.92D-05  0.00D+00 EMaxC= 1.00D-01 BMatC= 1.50D-08 BMatP= 5.01D-07
 IDIUse=1 WtCom= 1.00D+00 WtEn= 0.00D+00
 Coeff-Com: -0.114D-03 0.941D-04-0.152D-02 0.627D-01-0.415D+00 0.135D+01
 Coeff:     -0.114D-03 0.941D-04-0.152D-02 0.627D-01-0.415D+00 0.135D+01
 Gap=     0.545 Goal=   None    Shift=    0.000
 RMSDP=1.74D-06 MaxDP=4.22D-05 DE=-1.20D-06 OVMax= 1.16D-04

 Cycle   7  Pass 1  IDiag  1:
 E= -76.0478696735204     Delta-E=       -0.000000037562 Rises=F Damp=F
 DIIS: error= 2.82D-06 at cycle   7 NSaved=   7.
 NSaved= 7 IEnMin= 7 EnMin= -76.0478696735204     IErMin= 7 ErrMin= 2.82D-06
 ErrMax= 2.82D-06  0.00D+00 EMaxC= 1.00D-01 BMatC= 3.57D-10 BMatP= 1.50D-08
 IDIUse=1 WtCom= 1.00D+00 WtEn= 0.00D+00
 Coeff-Com:  0.283D-04-0.176D-03-0.779D-03 0.264D-02 0.158D-01-0.193D+00
 Coeff-Com:  0.118D+01
 Coeff:      0.283D-04-0.176D-03-0.779D-03 0.264D-02 0.158D-01-0.193D+00
 Coeff:      0.118D+01
 Gap=     0.545 Goal=   None    Shift=    0.000
 RMSDP=2.48D-07 MaxDP=4.96D-06 DE=-3.76D-08 OVMax= 1.58D-05

 Cycle   8  Pass 1  IDiag  1:
 E= -76.0478696743277     Delta-E=       -0.000000000807 Rises=F Damp=F
 DIIS: error= 5.06D-07 at cycle   8 NSaved=   8.
 NSaved= 8 IEnMin= 8 EnMin= -76.0478696743277     IErMin= 8 ErrMin= 5.06D-07
 ErrMax= 5.06D-07  0.00D+00 EMaxC= 1.00D-01 BMatC= 1.48D-11 BMatP= 3.57D-10
 IDIUse=1 WtCom= 1.00D+00 WtEn= 0.00D+00
 Coeff-Com:  0.307D-05 0.137D-04 0.182D-03-0.371D-02 0.209D-01-0.548D-01
 Coeff-Com: -0.108D+00 0.114D+01
 Coeff:      0.307D-05 0.137D-04 0.182D-03-0.371D-02 0.209D-01-0.548D-01
 Coeff:     -0.108D+00 0.114D+01
 Gap=     0.545 Goal=   None    Shift=    0.000
 RMSDP=6.34D-08 MaxDP=1.60D-06 DE=-8.07D-10 OVMax= 3.52D-06

 Cycle   9  Pass 1  IDiag  1:
 E= -76.0478696743636     Delta-E=       -0.000000000036 Rises=F Damp=F
 DIIS: error= 1.11D-07 at cycle   9 NSaved=   9.
 NSaved= 9 IEnMin= 9 EnMin= -76.0478696743636     IErMin= 9 ErrMin= 1.11D-07
 ErrMax= 1.11D-07  0.00D+00 EMaxC= 1.00D-01 BMatC= 4.22D-13 BMatP= 1.48D-11
 IDIUse=1 WtCom= 1.00D+00 WtEn= 0.00D+00
 Coeff-Com: -0.122D-05 0.158D-05-0.221D-04 0.700D-03-0.439D-02 0.148D-01
 Coeff-Com: -0.457D-02-0.244D+00 0.124D+01
 Coeff:     -0.122D-05 0.158D-05-0.221D-04 0.700D-03-0.439D-02 0.148D-01
 Coeff:     -0.457D-02-0.244D+00 0.124D+01
 Gap=     0.545 Goal=   None    Shift=    0.000
 RMSDP=1.18D-08 MaxDP=2.74D-07 DE=-3.59D-11 OVMax= 5.59D-07

 Cycle  10  Pass 1  IDiag  1:
 E= -76.0478696743645     Delta-E=       -0.000000000001 Rises=F Damp=F
 DIIS: error= 2.26D-08 at cycle  10 NSaved=  10.
 NSaved=10 IEnMin=10 EnMin= -76.0478696743645     IErMin=10 ErrMin= 2.26D-08
 ErrMax= 2.26D-08  0.00D+00 EMaxC= 1.00D-01 BMatC= 1.59D-14 BMatP= 4.22D-13
 IDIUse=1 WtCom= 1.00D+00 WtEn= 0.00D+00
 Coeff-Com:  0.379D-06-0.907D-06 0.378D-05-0.171D-03 0.110D-02-0.407D-02
 Coeff-Com:  0.446D-02 0.627D-01-0.488D+00 0.142D+01
 Coeff:      0.379D-06-0.907D-06 0.378D-05-0.171D-03 0.110D-02-0.407D-02
 Coeff:      0.446D-02 0.627D-01-0.488D+00 0.142D+01
 Gap=     0.545 Goal=   None    Shift=    0.000
 RMSDP=2.65D-09 MaxDP=5.68D-08 DE=-8.95D-13 OVMax= 1.29D-07

 SCF Done:  E(RHF) =  -76.0478696744     A.U. after   10 cycles
            NFock= 10  Conv=0.27D-08     -V/T= 1.9994
 KE= 7.609093437890D+01 PE=-1.995868170084D+02 EE= 3.796291013257D+01
 Leave Link  502 at Wed Feb  8 13:48:57 2023, MaxMem=   754974720 cpu:               6.2 elap:               2.2
 (Enter /opt/cluster/programs/g16-c.01/g16/l801.exe)
 Windowed orbitals will be sorted by symmetry type.
 ExpMin= 2.53D-02 ExpMax= 1.53D+04 ExpMxC= 5.22D+02 IAcc=3 IRadAn=         5 AccDes= 0.00D+00
 HarFok:  IExCor=  205 AccDes= 0.00D+00 IRadAn=         5 IDoV=-2 UseB2=F ITyADJ=14
 ICtDFT= 12500011 ScaDFX=  1.000000  1.000000  1.000000  1.000000
 Largest valence mixing into a core orbital is  1.11D-04
 Largest core mixing into a valence orbital is  1.58D-05
 Range of M.O.s used for correlation:     2    92
 NBasis=    92 NAE=     5 NBE=     5 NFC=     1 NFV=     0
 NROrb=     91 NOA=     4 NOB=     4 NVA=    87 NVB=    87

 **** Warning!!: The largest alpha MO coefficient is  0.16202441D+02

 Leave Link  801 at Wed Feb  8 13:48:57 2023, MaxMem=   754974720 cpu:               0.4 elap:               0.2
 (Enter /opt/cluster/programs/g16-c.01/g16/l804.exe)
 Closed-shell transformation, MDV=   754974720 ITran=4 ISComp=2.
 Unit  1 TFree=        277501 TCopy=        343607.
 Semi-Direct transformation.
 ModeAB=           2 MOrb=             4 LenV=     754586750
 LASXX=       736380 LTotXX=      736380 LenRXX=      736380
 LTotAB=      763744 MaxLAS=     2025660 LenRXY=     2025660
 NonZer=     2107560 LenScr=     3929600 LnRSAI=           0
 LnScr1=           0 LExtra=           0 Total=      6691640
 MaxDsk=          -1 SrtSym=           F ITran=            4
 DoSDTr:  NPSUse=  4
 JobTyp=0 Pass  1:  I=   1 to   4.
 (rs|ai) integrals will be sorted in core.
 Complete sort for first half transformation.
 First half transformation complete.
 Complete sort for second half transformation.
 Second half transformation complete.
 Spin components of T(2) and E(2):
     alpha-alpha T2 =       0.8088419501D-02 E2=     -0.3270807158D-01
     alpha-beta  T2 =       0.4660047582D-01 E2=     -0.2031785755D+00
     beta-beta   T2 =       0.8088419501D-02 E2=     -0.3270807158D-01
 ANorm=    0.1030910915D+01
 E2 =    -0.2685947186D+00 EUMP2 =    -0.76316464392983D+02
 Leave Link  804 at Wed Feb  8 13:49:05 2023, MaxMem=   754974720 cpu:              15.4 elap:               7.7
 (Enter /opt/cluster/programs/g16-c.01/g16/l913.exe)
 CIDS:  MDV=   754974720.
 Frozen-core window:  NFC=   1 NFV=   0.
 IFCWin=0 IBDFC=1 NFBD=     0     0 NFCmp=     0     0 NFFFC=     0     0
 Using DD3R+UMP44R for 1st iteration.
 Using DD4RQ for 2nd and later iterations.
 Keep R2 and R3 ints in memory in symmetry-blocked form, NReq=13979827.
 FoFCou: FMM=F IPFlag=           0 FMFlag=           0 FMFlg1=           0
         NFxFlg=           0 DoJE=F BraDBF=F KetDBF=F FulRan=T
         wScrn=  0.000000 ICntrl=       600 IOpCl=  0 I1Cent=           0 NGrid=           0
         NMat0=    1 NMatS0=   4278 NMatT0=    0 NMatD0=    1 NMtDS0=    0 NMtDT0=    0
 Petite list used in FoFCou.
 CIDS: In Core Option IDoMem=           1.
 CCSD(T)
 =======
 Iterations=  50 Convergence= 0.100D-06
 Produce multiple copies of IABC intergrals
 Iteration Nr.   1
 **********************
 DD1Dir will call FoFMem   1 times, MxPair=        20
 NAB=    10 NAA=     0 NBB=     0.
 MP4(R+Q)=  0.40680696D-02
 Maximum subspace dimension=  5
 A-vector RMS=  2.8061597D-03 Max=  1.1555594D-02 conv= 1.00D-05.
 RLE energy=       -0.2671629621
 E3=       -0.26715403D-02        EUMP3=      -0.76319135933D+02
 E4(DQ)=   -0.48342962D-03        UMP4(DQ)=   -0.76319619363D+02
 E4(SDQ)=  -0.23399506D-02        UMP4(SDQ)=  -0.76321475884D+02
 VARIATIONAL ENERGIES WITH THE FIRST-ORDER WAVEFUNCTION:
 DE(Corr)= -0.26715530     E(Corr)=     -76.315024970    
 NORM(A)=   0.10306660D+01
 Iteration Nr.   2
 **********************
 DD1Dir will call FoFMem   1 times, MxPair=        20
 NAB=    10 NAA=     0 NBB=     0.
 A-vector RMS=  2.9240805D-04 Max=  2.0772143D-03 conv= 1.00D-05.
 RLE energy=       -0.2727952104
 DE(Corr)= -0.27243910     E(CORR)=     -76.320308775     Delta=-5.28D-03
 NORM(A)=   0.10326817D+01
 Iteration Nr.   3
 **********************
 DD1Dir will call FoFMem   1 times, MxPair=        20
 NAB=    10 NAA=     0 NBB=     0.
 A-vector RMS=  3.8165311D-04 Max=  2.0766867D-03 conv= 1.00D-05.
 RLE energy=       -0.2730877169
 DE(Corr)= -0.27273168     E(CORR)=     -76.320601354     Delta=-2.93D-04
 NORM(A)=   0.10330688D+01
 Iteration Nr.   4
 **********************
 DD1Dir will call FoFMem   1 times, MxPair=        20
 NAB=    10 NAA=     0 NBB=     0.
 A-vector RMS=  5.8159776D-05 Max=  3.3925015D-04 conv= 1.00D-05.
 RLE energy=       -0.2731190646
 DE(Corr)= -0.27309290     E(CORR)=     -76.320962572     Delta=-3.61D-04
 NORM(A)=   0.10331738D+01
 Iteration Nr.   5
 **********************
 DD1Dir will call FoFMem   1 times, MxPair=        20
 NAB=    10 NAA=     0 NBB=     0.
 A-vector RMS=  2.7623428D-05 Max=  1.7698424D-04 conv= 1.00D-05.
 RLE energy=       -0.2731301316
 DE(Corr)= -0.27312533     E(CORR)=     -76.320995004     Delta=-3.24D-05
 NORM(A)=   0.10331941D+01
 Iteration Nr.   6
 **********************
 DD1Dir will call FoFMem   1 times, MxPair=        20
 NAB=    10 NAA=     0 NBB=     0.
 A-vector RMS=  6.5326516D-06 Max=  4.0193254D-05 conv= 1.00D-05.
 RLE energy=       -0.2731269253
 DE(Corr)= -0.27312769     E(CORR)=     -76.320997365     Delta=-2.36D-06
 NORM(A)=   0.10331957D+01
 Iteration Nr.   7
 **********************
 DD1Dir will call FoFMem   1 times, MxPair=        20
 NAB=    10 NAA=     0 NBB=     0.
 A-vector RMS=  2.0451763D-06 Max=  1.1195145D-05 conv= 1.00D-05.
 RLE energy=       -0.2731268880
 DE(Corr)= -0.27312768     E(CORR)=     -76.320997355     Delta= 1.02D-08
 NORM(A)=   0.10331962D+01
 Iteration Nr.   8
 **********************
 DD1Dir will call FoFMem   1 times, MxPair=        20
 NAB=    10 NAA=     0 NBB=     0.
 A-vector RMS=  8.1601913D-07 Max=  5.4144734D-06 conv= 1.00D-05.
 RLE energy=       -0.2731273814
 DE(Corr)= -0.27312747     E(CORR)=     -76.320997143     Delta= 2.12D-07
 NORM(A)=   0.10331966D+01
 Iteration Nr.   9
 **********************
 DD1Dir will call FoFMem   1 times, MxPair=        20
 NAB=    10 NAA=     0 NBB=     0.
 A-vector RMS=  1.5984120D-07 Max=  9.0828664D-07 conv= 1.00D-05.
 RLE energy=       -0.2731274597
 DE(Corr)= -0.27312747     E(CORR)=     -76.320997147     Delta=-4.32D-09
 NORM(A)=   0.10331967D+01
 CI/CC converged in    9 iterations to DelEn=-4.32D-09 Conv= 1.00D-07 ErrA1= 1.60D-07 Conv= 1.00D-05
 Wavefunction amplitudes converged. E(Corr)=     -76.320997147    
 Largest amplitude= 2.18D-02
 IPart=  3 IA=    6   11.23% done.
 IPart=  1 IA=   11   21.79% done.
 IPart=  2 IA=   16   31.68% done.
 IPart=  3 IA=   21   40.90% done.
 IPart=  3 IA=   27   51.08% done.
 IPart=  3 IA=   33   60.30% done.
 IPart=  1 IA=   41   71.10% done.
 IPart=  2 IA=   49   80.19% done.
 IPart=  1 IA=   61   90.62% done.
 Time for triples=        6.45 seconds.
 T4(CCSD)= -0.89018548D-02
 T5(CCSD)=  0.31393852D-03
 CCSD(T)= -0.76329585063D+02
 Discarding MO integrals.
 Leave Link  913 at Wed Feb  8 13:49:21 2023, MaxMem=   754974720 cpu:              48.2 elap:              16.1
 (Enter /opt/cluster/programs/g16-c.01/g16/l601.exe)
 Copying SCF densities to generalized density rwf, IOpCl= 0 IROHF=0.

 **********************************************************************

            Population analysis using the SCF Density.

 **********************************************************************

 Orbital symmetries:
       Occupied  (A') (A') (A') (A') (A")
       Virtual   (A') (A') (A') (A") (A') (A') (A') (A') (A") (A")
                 (A') (A') (A') (A') (A') (A') (A') (A") (A") (A')
                 (A") (A') (A") (A') (A") (A') (A') (A') (A') (A")
                 (A') (A") (A') (A') (A') (A") (A") (A') (A') (A')
                 (A') (A") (A") (A') (A') (A") (A') (A') (A') (A')
                 (A") (A") (A') (A') (A') (A") (A') (A") (A") (A')
                 (A") (A") (A') (A') (A') (A') (A') (A") (A') (A')
                 (A") (A') (A') (A') (A") (A') (A") (A') (A") (A")
                 (A") (A') (A') (A') (A') (A') (A')
 The electronic state is 1-A'.
 Alpha  occ. eigenvalues --  -20.56948  -1.38233  -0.69029  -0.62574  -0.51719
 Alpha virt. eigenvalues --    0.02829   0.04891   0.13265   0.16021   0.17795
 Alpha virt. eigenvalues --    0.18745   0.22443   0.24885   0.27187   0.28492
 Alpha virt. eigenvalues --    0.30243   0.37216   0.43563   0.47207   0.59027
 Alpha virt. eigenvalues --    0.67199   0.70231   0.72122   0.73782   0.85573
 Alpha virt. eigenvalues --    0.87161   0.89563   0.89865   0.91632   0.92598
 Alpha virt. eigenvalues --    0.93883   0.95850   1.02238   1.05556   1.07809
 Alpha virt. eigenvalues --    1.11597   1.19186   1.21093   1.25982   1.43745
 Alpha virt. eigenvalues --    1.53339   1.56204   1.80720   1.95439   1.99497
 Alpha virt. eigenvalues --    2.19488   2.27499   2.32648   2.33455   2.39371
 Alpha virt. eigenvalues --    2.41281   2.45102   2.53876   2.65381   2.69211
 Alpha virt. eigenvalues --    2.70344   2.88411   2.88695   3.50957   3.73793
 Alpha virt. eigenvalues --    3.98409   4.03822   4.10648   4.20409   4.41352
 Alpha virt. eigenvalues --    4.42138   4.42973   4.44226   4.64755   4.80540
 Alpha virt. eigenvalues --    4.96995   5.09386   5.18778   5.23420   5.60856
 Alpha virt. eigenvalues --    5.63683   5.65904   6.32242   6.47799   6.69487
 Alpha virt. eigenvalues --    7.09679   7.17643   7.22268   7.27693   7.29853
 Alpha virt. eigenvalues --    7.43790   7.51538   7.54672   7.71096   8.14475
 Alpha virt. eigenvalues --    9.00917  16.71337
          Condensed to atoms (all electrons):
               1          2          3
     1  O    7.891175   0.258409   0.263903
     2  H    0.258409   0.530601   0.029042
     3  H    0.263903   0.029042   0.475515
 Mulliken charges:
               1
     1  O   -0.413487
     2  H    0.181948
     3  H    0.231540
 Sum of Mulliken charges =   0.00000
 Mulliken charges with hydrogens summed into heavy atoms:
               1
     1  O    0.000000
 Electronic spatial extent (au):  <R**2>=             19.1301
 Charge=              0.0000 electrons
 Dipole moment (field-independent basis, Debye):
    X=              0.0313    Y=             -2.2327    Z=              0.0000  Tot=              2.2329
 Quadrupole moment (field-independent basis, Debye-Ang):
   XX=             -5.0671   YY=             -5.6848   ZZ=             -7.4830
   XY=              0.0830   XZ=              0.0000   YZ=              0.0000
 Traceless Quadrupole moment (field-independent basis, Debye-Ang):
   XX=              1.0112   YY=              0.3935   ZZ=             -1.4047
   XY=              0.0830   XZ=              0.0000   YZ=              0.0000
 Octapole moment (field-independent basis, Debye-Ang**2):
  XXX=              0.0837  YYY=             -1.5287  ZZZ=              0.0000  XYY=             -0.0732
  XXY=             -1.1974  XXZ=              0.0000  XZZ=              0.0267  YZZ=             -0.2984
  YYZ=              0.0000  XYZ=              0.0000
 Hexadecapole moment (field-independent basis, Debye-Ang**3):
 XXXX=             -6.2452 YYYY=             -7.0425 ZZZZ=             -6.5763 XXXY=             -0.0484
 XXXZ=              0.0000 YYYX=              0.0098 YYYZ=              0.0000 ZZZX=              0.0000
 ZZZY=              0.0000 XXYY=             -1.7688 XXZZ=             -2.2958 YYZZ=             -2.3645
 XXYZ=              0.0000 YYXZ=              0.0000 ZZXY=             -0.0316
 N-N= 9.485102822543D+00 E-N=-1.995868169824D+02  KE= 7.609093437890D+01
 Symmetry A'   KE= 7.161304599977D+01
 Symmetry A"   KE= 4.477888379132D+00
 Leave Link  601 at Wed Feb  8 13:49:21 2023, MaxMem=   754974720 cpu:               0.7 elap:               0.4
 (Enter /opt/cluster/programs/g16-c.01/g16/l9999.exe)
 Unable to Open any file for archive entry.
 1\1\GINC-NODE62\SP\RCCSD(T)-FC\Aug-CC-pVTZ\H2O1\BOITTIER\08-Feb-2023\0
 \\#P CCSD(T)/aug-cc-pVTZ scf(maxcycle=200)\\Gaussian input\\0,1\O,0,0.
 ,0.11751,0.\H,0,0.7183372325,-0.4395112028,0.\H,0,-0.5396070801,-0.675
 2731981,0.\\Version=ES64L-G16RevC.01\State=1-A'\HF=-76.0478697\MP2=-76
 .3164644\MP3=-76.3191359\MP4D=-76.3236874\MP4DQ=-76.3196194\MP4SDQ=-76
 .3214759\CCSD=-76.3209971\CCSD(T)=-76.3295851\RMSD=2.652e-09\PG=CS [SG
 (H2O1)]\\@
 The archive entry for this job was punched.


 TIME IS IN FACT THE HERO OF THE PLOT. THE TIME
 WITH WHICH WE HAVE TO DEAL IS OF THE ORDER OF TWO
 BILLION YEARS...GIVEN SO MUCH TIME, THE "IMPOSSIBLE"
 BECOMES POSSIBLE, THE POSSIBLE PROBABLE, THE PROBABLE
 VIRTUALLY CERTAIN.  ONE HAS ONLY TO WAIT, TIME
 ITSELF PERFORMS THE MIRACLES.
 "ORIGIN OF LIFE" LECTURES, GEORGE WALD, 1954
 Job cpu time:       0 days  0 hours  1 minutes 16.5 seconds.
 Elapsed time:       0 days  0 hours  0 minutes 28.8 seconds.
 File lengths (MBytes):  RWF=     75 Int=      0 D2E=      0 Chk=      2 Scr=      1
 Normal termination of Gaussian 16 at Wed Feb  8 13:49:21 2023.
