 Entering Gaussian System, Link 0=/opt/cluster/programs/g16-c.01/g16/g16
 Input=/scratch/boittier/jobs/tmp.7262460/gaussian_136_water_b3lyp_pdz.com
 Output=/scratch/boittier/jobs/tmp.7262460/gaussian_136_water_b3lyp_pdz.out
 Initial command:
 /opt/cluster/programs/g16-c.01/g16/l1.exe "/scratch/boittier/jobs/tmp.7262460/Gau-54775.inp" -scrdir="/scratch/boittier/jobs/tmp.7262460/"
 Entering Link 1 = /opt/cluster/programs/g16-c.01/g16/l1.exe PID=     54776.
  
 Copyright (c) 1988-2019, Gaussian, Inc.  All Rights Reserved.
  
 This is part of the Gaussian(R) 16 program.  It is based on
 the Gaussian(R) 09 system (copyright 2009, Gaussian, Inc.),
 the Gaussian(R) 03 system (copyright 2003, Gaussian, Inc.),
 the Gaussian(R) 98 system (copyright 1998, Gaussian, Inc.),
 the Gaussian(R) 94 system (copyright 1995, Gaussian, Inc.),
 the Gaussian 92(TM) system (copyright 1992, Gaussian, Inc.),
 the Gaussian 90(TM) system (copyright 1990, Gaussian, Inc.),
 the Gaussian 88(TM) system (copyright 1988, Gaussian, Inc.),
 the Gaussian 86(TM) system (copyright 1986, Carnegie Mellon
 University), and the Gaussian 82(TM) system (copyright 1983,
 Carnegie Mellon University). Gaussian is a federally registered
 trademark of Gaussian, Inc.
  
 This software contains proprietary and confidential information,
 including trade secrets, belonging to Gaussian, Inc.
  
 This software is provided under written license and may be
 used, copied, transmitted, or stored only in accord with that
 written license.
  
 The following legend is applicable only to US Government
 contracts under FAR:
  
                    RESTRICTED RIGHTS LEGEND
  
 Use, reproduction and disclosure by the US Government is
 subject to restrictions as set forth in subparagraphs (a)
 and (c) of the Commercial Computer Software - Restricted
 Rights clause in FAR 52.227-19.
  
 Gaussian, Inc.
 340 Quinnipiac St., Bldg. 40, Wallingford CT 06492
  
  
 ---------------------------------------------------------------
 Warning -- This program may not be used in any manner that
 competes with the business of Gaussian, Inc. or will provide
 assistance to any competitor of Gaussian, Inc.  The licensee
 of this program is prohibited from giving any competitor of
 Gaussian, Inc. access to this program.  By using this program,
 the user acknowledges that Gaussian, Inc. is engaged in the
 business of creating and licensing software in the field of
 computational chemistry and represents and warrants to the
 licensee that it is not a competitor of Gaussian, Inc. and that
 it will not use this program in any manner prohibited above.
 ---------------------------------------------------------------
  

 Cite this work as:
 Gaussian 16, Revision C.01,
 M. J. Frisch, G. W. Trucks, H. B. Schlegel, G. E. Scuseria, 
 M. A. Robb, J. R. Cheeseman, G. Scalmani, V. Barone, 
 G. A. Petersson, H. Nakatsuji, X. Li, M. Caricato, A. V. Marenich, 
 J. Bloino, B. G. Janesko, R. Gomperts, B. Mennucci, H. P. Hratchian, 
 J. V. Ortiz, A. F. Izmaylov, J. L. Sonnenberg, D. Williams-Young, 
 F. Ding, F. Lipparini, F. Egidi, J. Goings, B. Peng, A. Petrone, 
 T. Henderson, D. Ranasinghe, V. G. Zakrzewski, J. Gao, N. Rega, 
 G. Zheng, W. Liang, M. Hada, M. Ehara, K. Toyota, R. Fukuda, 
 J. Hasegawa, M. Ishida, T. Nakajima, Y. Honda, O. Kitao, H. Nakai, 
 T. Vreven, K. Throssell, J. A. Montgomery, Jr., J. E. Peralta, 
 F. Ogliaro, M. J. Bearpark, J. J. Heyd, E. N. Brothers, K. N. Kudin, 
 V. N. Staroverov, T. A. Keith, R. Kobayashi, J. Normand, 
 K. Raghavachari, A. P. Rendell, J. C. Burant, S. S. Iyengar, 
 J. Tomasi, M. Cossi, J. M. Millam, M. Klene, C. Adamo, R. Cammi, 
 J. W. Ochterski, R. L. Martin, K. Morokuma, O. Farkas, 
 J. B. Foresman, and D. J. Fox, Gaussian, Inc., Wallingford CT, 2019.
 
 ******************************************
 Gaussian 16:  ES64L-G16RevC.01  3-Jul-2019
                 8-Feb-2023 
 ******************************************
 %nproc=4
 Will use up to    4 processors via shared memory.
 %mem=5760MB
 %chk=gaussian_136_water_b3lyp_pdz.chk
 ---------------------------------
 #P B3LYP/6-31g* scf(maxcycle=200)
 ---------------------------------
 1/38=1,172=1/1;
 2/12=2,17=6,18=5,40=1/2;
 3/5=1,6=6,7=1,11=2,25=1,30=1,74=-5/1,2,3;
 4//1;
 5/5=2,7=200,38=5/2;
 6/7=2,8=2,9=2,10=2,28=1/1;
 99/5=1,9=1/99;
 Leave Link    1 at Wed Feb  8 14:52:03 2023, MaxMem=   754974720 cpu:               0.2 elap:               0.1
 (Enter /opt/cluster/programs/g16-c.01/g16/l101.exe)
 --------------
 Gaussian input
 --------------
 Symbolic Z-matrix:
 Charge =  0 Multiplicity = 1
 O                     0.        0.11751   0. 
 H                     0.79736  -0.50079   0. 
 H                    -0.81867  -0.27753   0. 
 
 ITRead=  0  0  0
 MicOpt= -1 -1 -1
 NAtoms=      3 NQM=        3 NQMF=       0 NMMI=      0 NMMIF=      0
                NMic=       0 NMicF=      0.
                    Isotopes and Nuclear Properties:
 (Nuclear quadrupole moments (NQMom) in fm**2, nuclear magnetic moments (NMagM)
  in nuclear magnetons)

  Atom         1           2           3
 IAtWgt=          16           1           1
 AtmWgt=  15.9949146   1.0078250   1.0078250
 NucSpn=           0           1           1
 AtZEff=  -0.0000000  -0.0000000  -0.0000000
 NQMom=    0.0000000   0.0000000   0.0000000
 NMagM=    0.0000000   2.7928460   2.7928460
 AtZNuc=   8.0000000   1.0000000   1.0000000
 Leave Link  101 at Wed Feb  8 14:52:04 2023, MaxMem=   754974720 cpu:               1.0 elap:               0.5
 (Enter /opt/cluster/programs/g16-c.01/g16/l202.exe)
                          Input orientation:                          
 ---------------------------------------------------------------------
 Center     Atomic      Atomic             Coordinates (Angstroms)
 Number     Number       Type             X           Y           Z
 ---------------------------------------------------------------------
      1          8           0        0.000000    0.117510    0.000000
      2          1           0        0.797362   -0.500790    0.000000
      3          1           0       -0.818673   -0.277528    0.000000
 ---------------------------------------------------------------------
                    Distance matrix (angstroms):
                    1          2          3
     1  O    0.000000
     2  H    1.009000   0.000000
     3  H    0.909000   1.631385   0.000000
 Stoichiometry    H2O
 Framework group  CS[SG(H2O)]
 Deg. of freedom     3
 Full point group                 CS      NOp   2
 Largest Abelian subgroup         CS      NOp   2
 Largest concise Abelian subgroup C1      NOp   1
                         Standard orientation:                         
 ---------------------------------------------------------------------
 Center     Atomic      Atomic             Coordinates (Angstroms)
 Number     Number       Type             X           Y           Z
 ---------------------------------------------------------------------
      1          8           0        0.000000    0.101356    0.000000
      2          1           0        0.810186   -0.500041   -0.000000
      3          1           0       -0.810186   -0.310808    0.000000
 ---------------------------------------------------------------------
 Rotational constants (GHZ):        1122.0085721         374.2341109         280.6322030
 Leave Link  202 at Wed Feb  8 14:52:04 2023, MaxMem=   754974720 cpu:               0.1 elap:               0.1
 (Enter /opt/cluster/programs/g16-c.01/g16/l301.exe)
 Standard basis: 6-31G(d) (6D, 7F)
 Ernie: Thresh=  0.10000D-02 Tol=  0.10000D-05 Strict=F.
 There are    15 symmetry adapted cartesian basis functions of A'  symmetry.
 There are     4 symmetry adapted cartesian basis functions of A"  symmetry.
 There are    15 symmetry adapted basis functions of A'  symmetry.
 There are     4 symmetry adapted basis functions of A"  symmetry.
    19 basis functions,    36 primitive gaussians,    19 cartesian basis functions
     5 alpha electrons        5 beta electrons
       nuclear repulsion energy         9.1772549095 Hartrees.
 IExCor=  402 DFT=T Ex+Corr=B3LYP ExCW=0 ScaHFX=  0.200000
 ScaDFX=  0.800000  0.720000  1.000000  0.810000 ScalE2=  1.000000  1.000000
 IRadAn=      5 IRanWt=     -1 IRanGd=            0 ICorTp=0 IEmpDi=  4
 NAtoms=    3 NActive=    3 NUniq=    3 SFac= 1.00D+00 NAtFMM=   60 NAOKFM=F Big=F
 Integral buffers will be    131072 words long.
 Raffenetti 2 integral format.
 Two-electron integral symmetry is turned on.
 Leave Link  301 at Wed Feb  8 14:52:04 2023, MaxMem=   754974720 cpu:               0.3 elap:               0.1
 (Enter /opt/cluster/programs/g16-c.01/g16/l302.exe)
 NPDir=0 NMtPBC=     1 NCelOv=     1 NCel=       1 NClECP=     1 NCelD=      1
         NCelK=      1 NCelE2=     1 NClLst=     1 CellRange=     0.0.
 One-electron integrals computed using PRISM.
 One-electron integral symmetry used in STVInt
 NBasis=    19 RedAO= T EigKep=  2.23D-02  NBF=    15     4
 NBsUse=    19 1.00D-06 EigRej= -1.00D+00 NBFU=    15     4
 Precomputing XC quadrature grid using
 IXCGrd= 4 IRadAn=           5 IRanWt=          -1 IRanGd=           0 AccXCQ= 0.00D+00.
 Generated NRdTot=       0 NPtTot=           0 NUsed=           0 NTot=          32
 NSgBfM=    19    19    19    19    19 MxSgAt=     3 MxSgA2=     3.
 Leave Link  302 at Wed Feb  8 14:52:04 2023, MaxMem=   754974720 cpu:               0.6 elap:               0.3
 (Enter /opt/cluster/programs/g16-c.01/g16/l303.exe)
 DipDrv:  MaxL=1.
 Leave Link  303 at Wed Feb  8 14:52:04 2023, MaxMem=   754974720 cpu:               0.1 elap:               0.0
 (Enter /opt/cluster/programs/g16-c.01/g16/l401.exe)
 ExpMin= 1.61D-01 ExpMax= 5.48D+03 ExpMxC= 8.25D+02 IAcc=3 IRadAn=         5 AccDes= 0.00D+00
 Harris functional with IExCor=  402 and IRadAn=       5 diagonalized for initial guess.
 HarFok:  IExCor=  402 AccDes= 0.00D+00 IRadAn=         5 IDoV= 1 UseB2=F ITyADJ=14
 ICtDFT=  3500011 ScaDFX=  1.000000  1.000000  1.000000  1.000000
 FoFCou: FMM=F IPFlag=           0 FMFlag=      100000 FMFlg1=           0
         NFxFlg=           0 DoJE=T BraDBF=F KetDBF=T FulRan=T
         wScrn=  0.000000 ICntrl=       500 IOpCl=  0 I1Cent=   200000004 NGrid=           0
         NMat0=    1 NMatS0=      1 NMatT0=    0 NMatD0=    1 NMtDS0=    0 NMtDT0=    0
 Petite list used in FoFCou.
 Harris En= -76.4423403352287    
 JPrj=0 DoOrth=F DoCkMO=F.
 Initial guess orbital symmetries:
       Occupied  (A') (A') (A') (A') (A")
       Virtual   (A') (A') (A') (A") (A') (A') (A') (A') (A") (A')
                 (A") (A') (A') (A')
 The electronic state of the initial guess is 1-A'.
 Leave Link  401 at Wed Feb  8 14:52:04 2023, MaxMem=   754974720 cpu:               0.6 elap:               0.2
 (Enter /opt/cluster/programs/g16-c.01/g16/l502.exe)
 Keep R1 ints in memory in symmetry-blocked form, NReq=3470963.
 FoFCou: FMM=F IPFlag=           0 FMFlag=           0 FMFlg1=           0
         NFxFlg=           0 DoJE=F BraDBF=F KetDBF=F FulRan=T
         wScrn=  0.000000 ICntrl=       600 IOpCl=  0 I1Cent=           0 NGrid=           0
         NMat0=    1 NMatS0=    190 NMatT0=    0 NMatD0=    1 NMtDS0=    0 NMtDT0=    0
 Petite list used in FoFCou.
 Closed shell SCF:
 Using DIIS extrapolation, IDIIS=  1040.
 NGot=   754974720 LenX=   754962225 LenY=   754961343
 Requested convergence on RMS density matrix=1.00D-08 within 200 cycles.
 Requested convergence on MAX density matrix=1.00D-06.
 Requested convergence on             energy=1.00D-06.
 No special actions if energy rises.
 Integral accuracy reduced to 1.0D-05 until final iterations.

 Cycle   1  Pass 0  IDiag  1:
 E= -76.3172475822864    
 DIIS: error= 8.00D-02 at cycle   1 NSaved=   1.
 NSaved= 1 IEnMin= 1 EnMin= -76.3172475822864     IErMin= 1 ErrMin= 8.00D-02
 ErrMax= 8.00D-02  0.00D+00 EMaxC= 1.00D-01 BMatC= 1.12D-01 BMatP= 1.12D-01
 IDIUse=3 WtCom= 2.00D-01 WtEn= 8.00D-01
 Coeff-Com:  0.100D+01
 Coeff-En:   0.100D+01
 Coeff:      0.100D+01
 Gap=     0.202 Goal=   None    Shift=    0.000
 GapD=    0.202 DampG=1.000 DampE=0.500 DampFc=0.5000 IDamp=-1.
 Damping current iteration by 5.00D-01
 RMSDP=2.99D-02 MaxDP=2.10D-01              OVMax= 2.00D-01

 Cycle   2  Pass 0  IDiag  1:
 E= -76.3462439693330     Delta-E=       -0.028996387047 Rises=F Damp=T
 DIIS: error= 1.89D-02 at cycle   2 NSaved=   2.
 NSaved= 2 IEnMin= 2 EnMin= -76.3462439693330     IErMin= 2 ErrMin= 1.89D-02
 ErrMax= 1.89D-02  0.00D+00 EMaxC= 1.00D-01 BMatC= 6.30D-03 BMatP= 1.12D-01
 IDIUse=3 WtCom= 8.11D-01 WtEn= 1.89D-01
 Coeff-Com:  0.176D+00 0.824D+00
 Coeff-En:   0.290D+00 0.710D+00
 Coeff:      0.197D+00 0.803D+00
 Gap=     0.335 Goal=   None    Shift=    0.000
 RMSDP=3.66D-03 MaxDP=3.66D-02 DE=-2.90D-02 OVMax= 1.16D-01

 Cycle   3  Pass 0  IDiag  1:
 E= -76.3997010941842     Delta-E=       -0.053457124851 Rises=F Damp=F
 DIIS: error= 3.05D-03 at cycle   3 NSaved=   3.
 NSaved= 3 IEnMin= 3 EnMin= -76.3997010941842     IErMin= 3 ErrMin= 3.05D-03
 ErrMax= 3.05D-03  0.00D+00 EMaxC= 1.00D-01 BMatC= 1.87D-04 BMatP= 6.30D-03
 IDIUse=3 WtCom= 9.69D-01 WtEn= 3.05D-02
 Coeff-Com:  0.382D-01 0.966D-02 0.952D+00
 Coeff-En:   0.000D+00 0.000D+00 0.100D+01
 Coeff:      0.370D-01 0.937D-02 0.954D+00
 Gap=     0.349 Goal=   None    Shift=    0.000
 RMSDP=4.44D-04 MaxDP=3.40D-03 DE=-5.35D-02 OVMax= 2.96D-03

 Cycle   4  Pass 0  IDiag  1:
 E= -76.3998266211949     Delta-E=       -0.000125527011 Rises=F Damp=F
 DIIS: error= 3.61D-04 at cycle   4 NSaved=   4.
 NSaved= 4 IEnMin= 4 EnMin= -76.3998266211949     IErMin= 4 ErrMin= 3.61D-04
 ErrMax= 3.61D-04  0.00D+00 EMaxC= 1.00D-01 BMatC= 2.45D-06 BMatP= 1.87D-04
 IDIUse=3 WtCom= 9.96D-01 WtEn= 3.61D-03
 Coeff-Com:  0.537D-02-0.160D-01 0.195D+00 0.815D+00
 Coeff-En:   0.000D+00 0.000D+00 0.000D+00 0.100D+01
 Coeff:      0.535D-02-0.159D-01 0.195D+00 0.816D+00
 Gap=     0.349 Goal=   None    Shift=    0.000
 RMSDP=4.00D-05 MaxDP=1.95D-04 DE=-1.26D-04 OVMax= 2.56D-04

 Cycle   5  Pass 0  IDiag  1:
 E= -76.3998283435972     Delta-E=       -0.000001722402 Rises=F Damp=F
 DIIS: error= 5.04D-05 at cycle   5 NSaved=   5.
 NSaved= 5 IEnMin= 5 EnMin= -76.3998283435972     IErMin= 5 ErrMin= 5.04D-05
 ErrMax= 5.04D-05  0.00D+00 EMaxC= 1.00D-01 BMatC= 3.54D-08 BMatP= 2.45D-06
 IDIUse=1 WtCom= 1.00D+00 WtEn= 0.00D+00
 Coeff-Com:  0.488D-03-0.356D-03 0.302D-03-0.418D-02 0.100D+01
 Coeff:      0.488D-03-0.356D-03 0.302D-03-0.418D-02 0.100D+01
 Gap=     0.349 Goal=   None    Shift=    0.000
 RMSDP=7.38D-06 MaxDP=6.01D-05 DE=-1.72D-06 OVMax= 4.59D-05

 Initial convergence to 1.0D-05 achieved.  Increase integral accuracy.
 Cycle   6  Pass 1  IDiag  1:
 E= -76.3998279867301     Delta-E=        0.000000356867 Rises=F Damp=F
 DIIS: error= 2.21D-06 at cycle   1 NSaved=   1.
 NSaved= 1 IEnMin= 1 EnMin= -76.3998279867301     IErMin= 1 ErrMin= 2.21D-06
 ErrMax= 2.21D-06  0.00D+00 EMaxC= 1.00D-01 BMatC= 7.16D-11 BMatP= 7.16D-11
 IDIUse=1 WtCom= 1.00D+00 WtEn= 0.00D+00
 Coeff-Com:  0.100D+01
 Coeff:      0.100D+01
 Gap=     0.349 Goal=   None    Shift=    0.000
 RMSDP=7.38D-06 MaxDP=6.01D-05 DE= 3.57D-07 OVMax= 4.74D-06

 Cycle   7  Pass 1  IDiag  1:
 E= -76.3998279867825     Delta-E=       -0.000000000052 Rises=F Damp=F
 DIIS: error= 1.05D-06 at cycle   2 NSaved=   2.
 NSaved= 2 IEnMin= 2 EnMin= -76.3998279867825     IErMin= 2 ErrMin= 1.05D-06
 ErrMax= 1.05D-06  0.00D+00 EMaxC= 1.00D-01 BMatC= 1.68D-11 BMatP= 7.16D-11
 IDIUse=1 WtCom= 1.00D+00 WtEn= 0.00D+00
 Coeff-Com:  0.324D+00 0.676D+00
 Coeff:      0.324D+00 0.676D+00
 Gap=     0.349 Goal=   None    Shift=    0.000
 RMSDP=1.72D-07 MaxDP=7.41D-07 DE=-5.25D-11 OVMax= 1.37D-06

 Cycle   8  Pass 1  IDiag  1:
 E= -76.3998279867967     Delta-E=       -0.000000000014 Rises=F Damp=F
 DIIS: error= 1.28D-07 at cycle   3 NSaved=   3.
 NSaved= 3 IEnMin= 3 EnMin= -76.3998279867967     IErMin= 3 ErrMin= 1.28D-07
 ErrMax= 1.28D-07  0.00D+00 EMaxC= 1.00D-01 BMatC= 2.34D-13 BMatP= 1.68D-11
 IDIUse=1 WtCom= 1.00D+00 WtEn= 0.00D+00
 Coeff-Com:  0.121D+00 0.260D+00 0.620D+00
 Coeff:      0.121D+00 0.260D+00 0.620D+00
 Gap=     0.349 Goal=   None    Shift=    0.000
 RMSDP=2.31D-08 MaxDP=1.64D-07 DE=-1.42D-11 OVMax= 1.57D-07

 Cycle   9  Pass 1  IDiag  1:
 E= -76.3998279867969     Delta-E=       -0.000000000000 Rises=F Damp=F
 DIIS: error= 5.13D-08 at cycle   4 NSaved=   4.
 NSaved= 4 IEnMin= 4 EnMin= -76.3998279867969     IErMin= 4 ErrMin= 5.13D-08
 ErrMax= 5.13D-08  0.00D+00 EMaxC= 1.00D-01 BMatC= 5.10D-14 BMatP= 2.34D-13
 IDIUse=1 WtCom= 1.00D+00 WtEn= 0.00D+00
 Coeff-Com: -0.140D-01-0.283D-01 0.314D+00 0.728D+00
 Coeff:     -0.140D-01-0.283D-01 0.314D+00 0.728D+00
 Gap=     0.349 Goal=   None    Shift=    0.000
 RMSDP=7.91D-09 MaxDP=5.41D-08 DE=-1.14D-13 OVMax= 6.54D-08

 SCF Done:  E(RB3LYP) =  -76.3998279868     A.U. after    9 cycles
            NFock=  9  Conv=0.79D-08     -V/T= 2.0074
 KE= 7.584171170273D+01 PE=-1.989711296627D+02 EE= 3.755233506369D+01
 Leave Link  502 at Wed Feb  8 14:52:05 2023, MaxMem=   754974720 cpu:               1.3 elap:               0.4
 (Enter /opt/cluster/programs/g16-c.01/g16/l601.exe)
 Copying SCF densities to generalized density rwf, IOpCl= 0 IROHF=0.

 **********************************************************************

            Population analysis using the SCF Density.

 **********************************************************************

 Orbital symmetries:
       Occupied  (A') (A') (A') (A') (A")
       Virtual   (A') (A') (A') (A') (A') (A") (A') (A') (A") (A')
                 (A") (A') (A') (A')
 The electronic state is 1-A'.
 Alpha  occ. eigenvalues --  -19.12884  -0.99338  -0.54048  -0.34702  -0.28753
 Alpha virt. eigenvalues --    0.06181   0.15648   0.78409   0.87017   0.89406
 Alpha virt. eigenvalues --    0.89408   1.08397   1.16272   1.73416   1.76508
 Alpha virt. eigenvalues --    1.79366   2.30345   2.59868   3.57950
          Condensed to atoms (all electrons):
               1          2          3
     1  O    8.296619   0.245868   0.255009
     2  H    0.245868   0.378643  -0.018613
     3  H    0.255009  -0.018613   0.360210
 Mulliken charges:
               1
     1  O   -0.797496
     2  H    0.394103
     3  H    0.403393
 Sum of Mulliken charges =   0.00000
 Mulliken charges with hydrogens summed into heavy atoms:
               1
     1  O    0.000000
 Electronic spatial extent (au):  <R**2>=             19.0134
 Charge=              0.0000 electrons
 Dipole moment (field-independent basis, Debye):
    X=             -0.0815    Y=             -1.8798    Z=             -0.0000  Tot=              1.8816
 Quadrupole moment (field-independent basis, Debye-Ang):
   XX=             -3.7724   YY=             -6.2561   ZZ=             -7.1798
   XY=             -0.3306   XZ=             -0.0000   YZ=              0.0000
 Traceless Quadrupole moment (field-independent basis, Debye-Ang):
   XX=              1.9637   YY=             -0.5200   ZZ=             -1.4437
   XY=             -0.3306   XZ=             -0.0000   YZ=              0.0000
 Octapole moment (field-independent basis, Debye-Ang**2):
  XXX=             -0.1733  YYY=             -1.0451  ZZZ=             -0.0000  XYY=              0.1619
  XXY=             -1.1993  XXZ=             -0.0000  XZZ=             -0.0699  YZZ=             -0.2900
  YYZ=             -0.0000  XYZ=              0.0000
 Hexadecapole moment (field-independent basis, Debye-Ang**3):
 XXXX=             -5.5520 YYYY=             -6.0185 ZZZZ=             -5.1893 XXXY=             -0.0037
 XXXZ=              0.0000 YYYX=              0.0534 YYYZ=              0.0000 ZZZX=              0.0000
 ZZZY=             -0.0000 XXYY=             -1.7540 XXZZ=             -2.1153 YYZZ=             -1.9011
 XXYZ=              0.0000 YYXZ=              0.0000 ZZXY=              0.0773
 N-N= 9.177254909493D+00 E-N=-1.989711283170D+02  KE= 7.584171170273D+01
 Symmetry A'   KE= 7.125714326623D+01
 Symmetry A"   KE= 4.584568436505D+00
 No NMR shielding tensors so no spin-rotation constants.
 Leave Link  601 at Wed Feb  8 14:52:05 2023, MaxMem=   754974720 cpu:               1.0 elap:               0.5
 (Enter /opt/cluster/programs/g16-c.01/g16/l9999.exe)
 Unable to Open any file for archive entry.
 1\1\GINC-NODE58\SP\RB3LYP\6-31G(d)\H2O1\BOITTIER\08-Feb-2023\0\\#P B3L
 YP/6-31g* scf(maxcycle=200)\\Gaussian input\\0,1\O,0,0.,0.11751,0.\H,0
 ,0.7973622306,-0.5007896629,0.\H,0,-0.8186734932,-0.2775276078,0.\\Ver
 sion=ES64L-G16RevC.01\State=1-A'\HF=-76.399828\RMSD=7.915e-09\Dipole=-
 0.0476033,-0.738731,0.\Quadrupole=1.4488366,-0.3754849,-1.0733518,-0.2
 843767,0.,0.\PG=CS [SG(H2O1)]\\@
 The archive entry for this job was punched.


 THIS CURIOUS WORLD WHICH WE INHABIT IS MORE WONDERFUL THAN IT IS CONVENIENT;
 MORE BEAUTIFUL THAN IT IS USEFUL;
 IT IS MORE TO BE ADMIRED THAN IT IS TO BE USED.

                                                                 -- THOREAU
 Job cpu time:       0 days  0 hours  0 minutes  5.4 seconds.
 Elapsed time:       0 days  0 hours  0 minutes  2.3 seconds.
 File lengths (MBytes):  RWF=      6 Int=      0 D2E=      0 Chk=      1 Scr=      1
 Normal termination of Gaussian 16 at Wed Feb  8 14:52:05 2023.
