 Entering Gaussian System, Link 0=/opt/cluster/programs/g16-c.01/g16/g16
 Input=/scratch/boittier/jobs/tmp.7261845/gaussian_167_water_ccsdt_atz.com
 Output=/scratch/boittier/jobs/tmp.7261845/gaussian_167_water_ccsdt_atz.out
 Initial command:
 /opt/cluster/programs/g16-c.01/g16/l1.exe "/scratch/boittier/jobs/tmp.7261845/Gau-108689.inp" -scrdir="/scratch/boittier/jobs/tmp.7261845/"
 Entering Link 1 = /opt/cluster/programs/g16-c.01/g16/l1.exe PID=    108690.
  
 Copyright (c) 1988-2019, Gaussian, Inc.  All Rights Reserved.
  
 This is part of the Gaussian(R) 16 program.  It is based on
 the Gaussian(R) 09 system (copyright 2009, Gaussian, Inc.),
 the Gaussian(R) 03 system (copyright 2003, Gaussian, Inc.),
 the Gaussian(R) 98 system (copyright 1998, Gaussian, Inc.),
 the Gaussian(R) 94 system (copyright 1995, Gaussian, Inc.),
 the Gaussian 92(TM) system (copyright 1992, Gaussian, Inc.),
 the Gaussian 90(TM) system (copyright 1990, Gaussian, Inc.),
 the Gaussian 88(TM) system (copyright 1988, Gaussian, Inc.),
 the Gaussian 86(TM) system (copyright 1986, Carnegie Mellon
 University), and the Gaussian 82(TM) system (copyright 1983,
 Carnegie Mellon University). Gaussian is a federally registered
 trademark of Gaussian, Inc.
  
 This software contains proprietary and confidential information,
 including trade secrets, belonging to Gaussian, Inc.
  
 This software is provided under written license and may be
 used, copied, transmitted, or stored only in accord with that
 written license.
  
 The following legend is applicable only to US Government
 contracts under FAR:
  
                    RESTRICTED RIGHTS LEGEND
  
 Use, reproduction and disclosure by the US Government is
 subject to restrictions as set forth in subparagraphs (a)
 and (c) of the Commercial Computer Software - Restricted
 Rights clause in FAR 52.227-19.
  
 Gaussian, Inc.
 340 Quinnipiac St., Bldg. 40, Wallingford CT 06492
  
  
 ---------------------------------------------------------------
 Warning -- This program may not be used in any manner that
 competes with the business of Gaussian, Inc. or will provide
 assistance to any competitor of Gaussian, Inc.  The licensee
 of this program is prohibited from giving any competitor of
 Gaussian, Inc. access to this program.  By using this program,
 the user acknowledges that Gaussian, Inc. is engaged in the
 business of creating and licensing software in the field of
 computational chemistry and represents and warrants to the
 licensee that it is not a competitor of Gaussian, Inc. and that
 it will not use this program in any manner prohibited above.
 ---------------------------------------------------------------
  

 Cite this work as:
 Gaussian 16, Revision C.01,
 M. J. Frisch, G. W. Trucks, H. B. Schlegel, G. E. Scuseria, 
 M. A. Robb, J. R. Cheeseman, G. Scalmani, V. Barone, 
 G. A. Petersson, H. Nakatsuji, X. Li, M. Caricato, A. V. Marenich, 
 J. Bloino, B. G. Janesko, R. Gomperts, B. Mennucci, H. P. Hratchian, 
 J. V. Ortiz, A. F. Izmaylov, J. L. Sonnenberg, D. Williams-Young, 
 F. Ding, F. Lipparini, F. Egidi, J. Goings, B. Peng, A. Petrone, 
 T. Henderson, D. Ranasinghe, V. G. Zakrzewski, J. Gao, N. Rega, 
 G. Zheng, W. Liang, M. Hada, M. Ehara, K. Toyota, R. Fukuda, 
 J. Hasegawa, M. Ishida, T. Nakajima, Y. Honda, O. Kitao, H. Nakai, 
 T. Vreven, K. Throssell, J. A. Montgomery, Jr., J. E. Peralta, 
 F. Ogliaro, M. J. Bearpark, J. J. Heyd, E. N. Brothers, K. N. Kudin, 
 V. N. Staroverov, T. A. Keith, R. Kobayashi, J. Normand, 
 K. Raghavachari, A. P. Rendell, J. C. Burant, S. S. Iyengar, 
 J. Tomasi, M. Cossi, J. M. Millam, M. Klene, C. Adamo, R. Cammi, 
 J. W. Ochterski, R. L. Martin, K. Morokuma, O. Farkas, 
 J. B. Foresman, and D. J. Fox, Gaussian, Inc., Wallingford CT, 2019.
 
 ******************************************
 Gaussian 16:  ES64L-G16RevC.01  3-Jul-2019
                 8-Feb-2023 
 ******************************************
 %nproc=4
 Will use up to    4 processors via shared memory.
 %mem=5760MB
 %chk=gaussian_167_water_ccsdt_atz.chk
 ----------------------------------------
 #P CCSD(T)/aug-cc-pVTZ scf(maxcycle=200)
 ----------------------------------------
 1/38=1,172=1/1;
 2/12=2,17=6,18=5,40=1/2;
 3/5=16,6=1,7=10,11=9,25=1,30=1/1,2,3;
 4//1;
 5/5=2,7=200,38=5/2;
 8/6=4,9=120000,10=1/1,4;
 9/5=7,14=2/13;
 6/7=2,8=2,9=2,10=2/1;
 99/5=1,9=1/99;
 Leave Link    1 at Wed Feb  8 13:57:25 2023, MaxMem=   754974720 cpu:               0.1 elap:               0.0
 (Enter /opt/cluster/programs/g16-c.01/g16/l101.exe)
 --------------
 Gaussian input
 --------------
 Symbolic Z-matrix:
 Charge =  0 Multiplicity = 1
 O                     0.        0.11751   0. 
 H                     0.79736  -0.50079   0. 
 H                    -0.72876  -0.58034   0. 
 
 ITRead=  0  0  0
 MicOpt= -1 -1 -1
 NAtoms=      3 NQM=        3 NQMF=       0 NMMI=      0 NMMIF=      0
                NMic=       0 NMicF=      0.
                    Isotopes and Nuclear Properties:
 (Nuclear quadrupole moments (NQMom) in fm**2, nuclear magnetic moments (NMagM)
  in nuclear magnetons)

  Atom         1           2           3
 IAtWgt=          16           1           1
 AtmWgt=  15.9949146   1.0078250   1.0078250
 NucSpn=           0           1           1
 AtZEff=  -0.0000000  -0.0000000  -0.0000000
 NQMom=    0.0000000   0.0000000   0.0000000
 NMagM=    0.0000000   2.7928460   2.7928460
 AtZNuc=   8.0000000   1.0000000   1.0000000
 Leave Link  101 at Wed Feb  8 13:57:25 2023, MaxMem=   754974720 cpu:               0.6 elap:               0.2
 (Enter /opt/cluster/programs/g16-c.01/g16/l202.exe)
                          Input orientation:                          
 ---------------------------------------------------------------------
 Center     Atomic      Atomic             Coordinates (Angstroms)
 Number     Number       Type             X           Y           Z
 ---------------------------------------------------------------------
      1          8           0        0.000000    0.117510    0.000000
      2          1           0        0.797362   -0.500790    0.000000
      3          1           0       -0.728757   -0.580340    0.000000
 ---------------------------------------------------------------------
                    Distance matrix (angstroms):
                    1          2          3
     1  O    0.000000
     2  H    1.009000   0.000000
     3  H    1.009000   1.528191   0.000000
 Stoichiometry    H2O
 Framework group  C2V[C2(O),SGV(H2)]
 Deg. of freedom     2
 Full point group                 C2V     NOp   4
 Largest Abelian subgroup         C2V     NOp   4
 Largest concise Abelian subgroup C2      NOp   2
                         Standard orientation:                         
 ---------------------------------------------------------------------
 Center     Atomic      Atomic             Coordinates (Angstroms)
 Number     Number       Type             X           Y           Z
 ---------------------------------------------------------------------
      1          8           0       -0.000000    0.000000    0.131794
      2          1           0       -0.000000    0.764096   -0.527174
      3          1           0       -0.000000   -0.764096   -0.527174
 ---------------------------------------------------------------------
 Rotational constants (GHZ):         650.1577505         429.4441079         258.6197986
 Leave Link  202 at Wed Feb  8 13:57:25 2023, MaxMem=   754974720 cpu:               0.0 elap:               0.0
 (Enter /opt/cluster/programs/g16-c.01/g16/l301.exe)
 Standard basis: Aug-CC-pVTZ (5D, 7F)
 Ernie: Thresh=  0.10000D-02 Tol=  0.10000D-05 Strict=F.
 Ernie:  3 primitive shells out of 52 were deleted.
 There are    42 symmetry adapted cartesian basis functions of A1  symmetry.
 There are    12 symmetry adapted cartesian basis functions of A2  symmetry.
 There are    20 symmetry adapted cartesian basis functions of B1  symmetry.
 There are    31 symmetry adapted cartesian basis functions of B2  symmetry.
 There are    35 symmetry adapted basis functions of A1  symmetry.
 There are    12 symmetry adapted basis functions of A2  symmetry.
 There are    18 symmetry adapted basis functions of B1  symmetry.
 There are    27 symmetry adapted basis functions of B2  symmetry.
    92 basis functions,   126 primitive gaussians,   105 cartesian basis functions
     5 alpha electrons        5 beta electrons
       nuclear repulsion energy         8.7375903812 Hartrees.
 IExCor=    0 DFT=F Ex=HF Corr=None ExCW=0 ScaHFX=  1.000000
 ScaDFX=  1.000000  1.000000  1.000000  1.000000 ScalE2=  1.000000  1.000000
 IRadAn=      5 IRanWt=     -1 IRanGd=            0 ICorTp=0 IEmpDi=  4
 NAtoms=    3 NActive=    3 NUniq=    2 SFac= 2.25D+00 NAtFMM=   60 NAOKFM=F Big=F
 Integral buffers will be    131072 words long.
 Raffenetti 1 integral format.
 Two-electron integral symmetry is turned on.
 Leave Link  301 at Wed Feb  8 13:57:26 2023, MaxMem=   754974720 cpu:               0.2 elap:               0.0
 (Enter /opt/cluster/programs/g16-c.01/g16/l302.exe)
 NPDir=0 NMtPBC=     1 NCelOv=     1 NCel=       1 NClECP=     1 NCelD=      1
         NCelK=      1 NCelE2=     1 NClLst=     1 CellRange=     0.0.
 One-electron integrals computed using PRISM.
 One-electron integral symmetry used in STVInt
 NBasis=    92 RedAO= T EigKep=  4.42D-04  NBF=    35    12    18    27
 NBsUse=    92 1.00D-06 EigRej= -1.00D+00 NBFU=    35    12    18    27
 Leave Link  302 at Wed Feb  8 13:57:26 2023, MaxMem=   754974720 cpu:               0.4 elap:               0.1
 (Enter /opt/cluster/programs/g16-c.01/g16/l303.exe)
 DipDrv:  MaxL=1.
 Leave Link  303 at Wed Feb  8 13:57:26 2023, MaxMem=   754974720 cpu:               0.2 elap:               0.1
 (Enter /opt/cluster/programs/g16-c.01/g16/l401.exe)
 ExpMin= 2.53D-02 ExpMax= 1.53D+04 ExpMxC= 5.22D+02 IAcc=3 IRadAn=         5 AccDes= 0.00D+00
 Harris functional with IExCor=  205 and IRadAn=       5 diagonalized for initial guess.
 HarFok:  IExCor=  205 AccDes= 0.00D+00 IRadAn=         5 IDoV= 1 UseB2=F ITyADJ=14
 ICtDFT=  3500011 ScaDFX=  1.000000  1.000000  1.000000  1.000000
 FoFCou: FMM=F IPFlag=           0 FMFlag=      100000 FMFlg1=           0
         NFxFlg=           0 DoJE=T BraDBF=F KetDBF=T FulRan=T
         wScrn=  0.000000 ICntrl=       500 IOpCl=  0 I1Cent=   200000004 NGrid=           0
         NMat0=    1 NMatS0=      1 NMatT0=    0 NMatD0=    1 NMtDS0=    0 NMtDT0=    0
 Petite list used in FoFCou.
 Harris En= -76.1453969396611    
 JPrj=0 DoOrth=F DoCkMO=F.
 Initial guess orbital symmetries:
       Occupied  (A1) (A1) (B2) (A1) (B1)
       Virtual   (A1) (B2) (A1) (B1) (B2) (A1) (B2) (A1) (A2) (A1)
                 (B1) (A1) (B2) (B2) (B2) (A1) (A1) (B1) (A2) (A1)
                 (B1) (A1) (B2) (B1) (A2) (A1) (B2) (A1) (B2) (B1)
                 (B2) (A1) (A2) (B2) (A2) (A1) (B1) (A1) (B2) (B2)
                 (A1) (B1) (A2) (A1) (A1) (B1) (B2) (A1) (B2) (B1)
                 (A1) (B2) (A2) (B2) (A1) (B1) (A2) (A1) (B1) (B2)
                 (A2) (A1) (B2) (B1) (A1) (B2) (A2) (A1) (B2) (B2)
                 (B1) (A1) (A1) (B2) (B1) (A1) (B1) (B2) (B1) (A2)
                 (A2) (A1) (A1) (A1) (B2) (B2) (A1)
 The electronic state of the initial guess is 1-A1.
 Leave Link  401 at Wed Feb  8 13:57:26 2023, MaxMem=   754974720 cpu:               0.6 elap:               0.2
 (Enter /opt/cluster/programs/g16-c.01/g16/l502.exe)
 Keep R1 ints in memory in symmetry-blocked form, NReq=11496777.
 FoFCou: FMM=F IPFlag=           0 FMFlag=           0 FMFlg1=           0
         NFxFlg=           0 DoJE=F BraDBF=F KetDBF=F FulRan=T
         wScrn=  0.000000 ICntrl=       600 IOpCl=  0 I1Cent=           0 NGrid=           0
         NMat0=    1 NMatS0=   4278 NMatT0=    0 NMatD0=    1 NMtDS0=    0 NMtDT0=    0
 Petite list used in FoFCou.
 Closed shell SCF:
 Using DIIS extrapolation, IDIIS=  1040.
 NGot=   754974720 LenX=   752607631 LenY=   752596165
 Requested convergence on RMS density matrix=1.00D-08 within 200 cycles.
 Requested convergence on MAX density matrix=1.00D-06.
 Requested convergence on             energy=1.00D-06.
 No special actions if energy rises.

 Cycle   1  Pass 1  IDiag  1:
 E= -75.9669704613625    
 DIIS: error= 5.66D-02 at cycle   1 NSaved=   1.
 NSaved= 1 IEnMin= 1 EnMin= -75.9669704613625     IErMin= 1 ErrMin= 5.66D-02
 ErrMax= 5.66D-02  0.00D+00 EMaxC= 1.00D-01 BMatC= 1.92D-01 BMatP= 1.92D-01
 IDIUse=3 WtCom= 4.34D-01 WtEn= 5.66D-01
 Coeff-Com:  0.100D+01
 Coeff-En:   0.100D+01
 Coeff:      0.100D+01
 Gap=     0.455 Goal=   None    Shift=    0.000
 GapD=    0.455 DampG=2.000 DampE=0.500 DampFc=1.0000 IDamp=-1.
 RMSDP=2.10D-03 MaxDP=4.62D-02              OVMax= 1.28D-01

 Cycle   2  Pass 1  IDiag  1:
 E= -76.0131631249355     Delta-E=       -0.046192663573 Rises=F Damp=F
 DIIS: error= 4.09D-02 at cycle   2 NSaved=   2.
 NSaved= 2 IEnMin= 2 EnMin= -76.0131631249355     IErMin= 2 ErrMin= 4.09D-02
 ErrMax= 4.09D-02  0.00D+00 EMaxC= 1.00D-01 BMatC= 6.05D-02 BMatP= 1.92D-01
 IDIUse=3 WtCom= 5.91D-01 WtEn= 4.09D-01
 Coeff-Com:  0.332D+00 0.668D+00
 Coeff-En:   0.239D+00 0.761D+00
 Coeff:      0.294D+00 0.706D+00
 Gap=     0.562 Goal=   None    Shift=    0.000
 RMSDP=1.33D-03 MaxDP=3.55D-02 DE=-4.62D-02 OVMax= 6.65D-02

 Cycle   3  Pass 1  IDiag  1:
 E= -76.0498220273525     Delta-E=       -0.036658902417 Rises=F Damp=F
 DIIS: error= 8.06D-03 at cycle   3 NSaved=   3.
 NSaved= 3 IEnMin= 3 EnMin= -76.0498220273525     IErMin= 3 ErrMin= 8.06D-03
 ErrMax= 8.06D-03  0.00D+00 EMaxC= 1.00D-01 BMatC= 2.85D-03 BMatP= 6.05D-02
 IDIUse=3 WtCom= 9.19D-01 WtEn= 8.06D-02
 Coeff-Com: -0.322D-01 0.147D+00 0.886D+00
 Coeff-En:   0.000D+00 0.000D+00 0.100D+01
 Coeff:     -0.296D-01 0.135D+00 0.895D+00
 Gap=     0.533 Goal=   None    Shift=    0.000
 RMSDP=2.26D-04 MaxDP=4.19D-03 DE=-3.67D-02 OVMax= 1.38D-02

 Cycle   4  Pass 1  IDiag  1:
 E= -76.0516731289637     Delta-E=       -0.001851101611 Rises=F Damp=F
 DIIS: error= 8.44D-04 at cycle   4 NSaved=   4.
 NSaved= 4 IEnMin= 4 EnMin= -76.0516731289637     IErMin= 4 ErrMin= 8.44D-04
 ErrMax= 8.44D-04  0.00D+00 EMaxC= 1.00D-01 BMatC= 1.80D-05 BMatP= 2.85D-03
 IDIUse=3 WtCom= 9.92D-01 WtEn= 8.44D-03
 Coeff-Com:  0.752D-02-0.582D-01-0.256D+00 0.131D+01
 Coeff-En:   0.000D+00 0.000D+00 0.000D+00 0.100D+01
 Coeff:      0.746D-02-0.577D-01-0.254D+00 0.130D+01
 Gap=     0.536 Goal=   None    Shift=    0.000
 RMSDP=4.38D-05 MaxDP=8.07D-04 DE=-1.85D-03 OVMax= 2.67D-03

 Cycle   5  Pass 1  IDiag  1:
 E= -76.0517054573061     Delta-E=       -0.000032328342 Rises=F Damp=F
 DIIS: error= 2.37D-04 at cycle   5 NSaved=   5.
 NSaved= 5 IEnMin= 5 EnMin= -76.0517054573061     IErMin= 5 ErrMin= 2.37D-04
 ErrMax= 2.37D-04  0.00D+00 EMaxC= 1.00D-01 BMatC= 9.34D-07 BMatP= 1.80D-05
 IDIUse=3 WtCom= 9.98D-01 WtEn= 2.37D-03
 Coeff-Com:  0.557D-03 0.601D-03-0.809D-03-0.251D+00 0.125D+01
 Coeff-En:   0.000D+00 0.000D+00 0.000D+00 0.000D+00 0.100D+01
 Coeff:      0.556D-03 0.600D-03-0.807D-03-0.250D+00 0.125D+01
 Gap=     0.536 Goal=   None    Shift=    0.000
 RMSDP=1.28D-05 MaxDP=2.99D-04 DE=-3.23D-05 OVMax= 9.12D-04

 Cycle   6  Pass 1  IDiag  1:
 E= -76.0517078210180     Delta-E=       -0.000002363712 Rises=F Damp=F
 DIIS: error= 3.77D-05 at cycle   6 NSaved=   6.
 NSaved= 6 IEnMin= 6 EnMin= -76.0517078210180     IErMin= 6 ErrMin= 3.77D-05
 ErrMax= 3.77D-05  0.00D+00 EMaxC= 1.00D-01 BMatC= 3.05D-08 BMatP= 9.34D-07
 IDIUse=1 WtCom= 1.00D+00 WtEn= 0.00D+00
 Coeff-Com: -0.366D-03 0.186D-02 0.805D-02 0.978D-02-0.327D+00 0.131D+01
 Coeff:     -0.366D-03 0.186D-02 0.805D-02 0.978D-02-0.327D+00 0.131D+01
 Gap=     0.537 Goal=   None    Shift=    0.000
 RMSDP=2.79D-06 MaxDP=7.34D-05 DE=-2.36D-06 OVMax= 2.04D-04

 Cycle   7  Pass 1  IDiag  1:
 E= -76.0517079143173     Delta-E=       -0.000000093299 Rises=F Damp=F
 DIIS: error= 5.48D-06 at cycle   7 NSaved=   7.
 NSaved= 7 IEnMin= 7 EnMin= -76.0517079143173     IErMin= 7 ErrMin= 5.48D-06
 ErrMax= 5.48D-06  0.00D+00 EMaxC= 1.00D-01 BMatC= 1.30D-09 BMatP= 3.05D-08
 IDIUse=1 WtCom= 1.00D+00 WtEn= 0.00D+00
 Coeff-Com:  0.325D-04-0.361D-03-0.165D-02 0.154D-01-0.222D-01-0.154D+00
 Coeff-Com:  0.116D+01
 Coeff:      0.325D-04-0.361D-03-0.165D-02 0.154D-01-0.222D-01-0.154D+00
 Coeff:      0.116D+01
 Gap=     0.537 Goal=   None    Shift=    0.000
 RMSDP=3.86D-07 MaxDP=8.16D-06 DE=-9.33D-08 OVMax= 2.98D-05

 Cycle   8  Pass 1  IDiag  1:
 E= -76.0517079168341     Delta-E=       -0.000000002517 Rises=F Damp=F
 DIIS: error= 1.19D-06 at cycle   8 NSaved=   8.
 NSaved= 8 IEnMin= 8 EnMin= -76.0517079168341     IErMin= 8 ErrMin= 1.19D-06
 ErrMax= 1.19D-06  0.00D+00 EMaxC= 1.00D-01 BMatC= 6.25D-11 BMatP= 1.30D-09
 IDIUse=1 WtCom= 1.00D+00 WtEn= 0.00D+00
 Coeff-Com:  0.763D-05 0.114D-04 0.131D-03-0.474D-02 0.195D-01-0.105D-01
 Coeff-Com: -0.355D+00 0.135D+01
 Coeff:      0.763D-05 0.114D-04 0.131D-03-0.474D-02 0.195D-01-0.105D-01
 Coeff:     -0.355D+00 0.135D+01
 Gap=     0.537 Goal=   None    Shift=    0.000
 RMSDP=1.23D-07 MaxDP=2.39D-06 DE=-2.52D-09 OVMax= 7.64D-06

 Cycle   9  Pass 1  IDiag  1:
 E= -76.0517079169950     Delta-E=       -0.000000000161 Rises=F Damp=F
 DIIS: error= 2.22D-07 at cycle   9 NSaved=   9.
 NSaved= 9 IEnMin= 9 EnMin= -76.0517079169950     IErMin= 9 ErrMin= 2.22D-07
 ErrMax= 2.22D-07  0.00D+00 EMaxC= 1.00D-01 BMatC= 1.54D-12 BMatP= 6.25D-11
 IDIUse=1 WtCom= 1.00D+00 WtEn= 0.00D+00
 Coeff-Com: -0.254D-05 0.304D-05-0.169D-04 0.104D-02-0.447D-02 0.355D-02
 Coeff-Com:  0.906D-01-0.444D+00 0.135D+01
 Coeff:     -0.254D-05 0.304D-05-0.169D-04 0.104D-02-0.447D-02 0.355D-02
 Coeff:      0.906D-01-0.444D+00 0.135D+01
 Gap=     0.537 Goal=   None    Shift=    0.000
 RMSDP=2.37D-08 MaxDP=4.45D-07 DE=-1.61D-10 OVMax= 1.22D-06

 Cycle  10  Pass 1  IDiag  1:
 E= -76.0517079169990     Delta-E=       -0.000000000004 Rises=F Damp=F
 DIIS: error= 4.80D-08 at cycle  10 NSaved=  10.
 NSaved=10 IEnMin=10 EnMin= -76.0517079169990     IErMin=10 ErrMin= 4.80D-08
 ErrMax= 4.80D-08  0.00D+00 EMaxC= 1.00D-01 BMatC= 6.56D-14 BMatP= 1.54D-12
 IDIUse=1 WtCom= 1.00D+00 WtEn= 0.00D+00
 Coeff-Com:  0.771D-06-0.170D-05 0.198D-05-0.264D-03 0.116D-02-0.134D-02
 Coeff-Com: -0.214D-01 0.124D+00-0.552D+00 0.145D+01
 Coeff:      0.771D-06-0.170D-05 0.198D-05-0.264D-03 0.116D-02-0.134D-02
 Coeff:     -0.214D-01 0.124D+00-0.552D+00 0.145D+01
 Gap=     0.537 Goal=   None    Shift=    0.000
 RMSDP=6.14D-09 MaxDP=1.65D-07 DE=-4.04D-12 OVMax= 3.65D-07

 SCF Done:  E(RHF) =  -76.0517079170     A.U. after   10 cycles
            NFock= 10  Conv=0.61D-08     -V/T= 2.0036
 KE= 7.578122331844D+01 PE=-1.979886384055D+02 EE= 3.741811678891D+01
 Leave Link  502 at Wed Feb  8 13:57:26 2023, MaxMem=   754974720 cpu:               1.8 elap:               0.5
 (Enter /opt/cluster/programs/g16-c.01/g16/l801.exe)
 Windowed orbitals will be sorted by symmetry type.
 ExpMin= 2.53D-02 ExpMax= 1.53D+04 ExpMxC= 5.22D+02 IAcc=3 IRadAn=         5 AccDes= 0.00D+00
 HarFok:  IExCor=  205 AccDes= 0.00D+00 IRadAn=         5 IDoV=-2 UseB2=F ITyADJ=14
 ICtDFT= 12500011 ScaDFX=  1.000000  1.000000  1.000000  1.000000
 Largest valence mixing into a core orbital is  1.14D-04
 Largest core mixing into a valence orbital is  1.85D-05
 Range of M.O.s used for correlation:     2    92
 NBasis=    92 NAE=     5 NBE=     5 NFC=     1 NFV=     0
 NROrb=     91 NOA=     4 NOB=     4 NVA=    87 NVB=    87

 **** Warning!!: The largest alpha MO coefficient is  0.14105467D+02

 Leave Link  801 at Wed Feb  8 13:57:26 2023, MaxMem=   754974720 cpu:               0.3 elap:               0.1
 (Enter /opt/cluster/programs/g16-c.01/g16/l804.exe)
 Closed-shell transformation, MDV=   754974720 ITran=4 ISComp=2.
 Unit  1 TFree=        277513 TCopy=        242092.
 Semi-Direct transformation.
 ModeAB=           4 MOrb=             4 LenV=     754589018
 LASXX=       368428 LTotXX=      368428 LenRXX=      751146
 LTotAB=      382718 MaxLAS=     1379560 LenRXY=           0
 NonZer=     1119574 LenScr=     2357760 LnRSAI=     1379560
 LnScr1=     2758656 LExtra=           0 Total=      7247122
 MaxDsk=          -1 SrtSym=           T ITran=            4
 DoSDTr:  NPSUse=  4
 JobTyp=0 Pass  1:  I=   1 to   4.
 (rs|ai) integrals will be sorted in core.
 Complete sort for first half transformation.
 First half transformation complete.
 Complete sort for second half transformation.
 Second half transformation complete.
 Spin components of T(2) and E(2):
     alpha-alpha T2 =       0.8613838531D-02 E2=     -0.3313668284D-01
     alpha-beta  T2 =       0.5034291819D-01 E2=     -0.2069083248D+00
     beta-beta   T2 =       0.8613838531D-02 E2=     -0.3313668284D-01
 ANorm=    0.1033233079D+01
 E2 =    -0.2731816905D+00 EUMP2 =    -0.76324889607492D+02
 Leave Link  804 at Wed Feb  8 13:57:27 2023, MaxMem=   754974720 cpu:               1.4 elap:               0.4
 (Enter /opt/cluster/programs/g16-c.01/g16/l913.exe)
 CIDS:  MDV=   754974720.
 Frozen-core window:  NFC=   1 NFV=   0.
 IFCWin=0 IBDFC=1 NFBD=     0     0 NFCmp=     0     0 NFFFC=     0     0
 Using DD3R+UMP44R for 1st iteration.
 Using DD4RQ for 2nd and later iterations.
 Keep R2 and R3 ints in memory in symmetry-blocked form, NReq=11500115.
 FoFCou: FMM=F IPFlag=           0 FMFlag=           0 FMFlg1=           0
         NFxFlg=           0 DoJE=F BraDBF=F KetDBF=F FulRan=T
         wScrn=  0.000000 ICntrl=       600 IOpCl=  0 I1Cent=           0 NGrid=           0
         NMat0=    1 NMatS0=   4278 NMatT0=    0 NMatD0=    1 NMtDS0=    0 NMtDT0=    0
 Petite list used in FoFCou.
 CIDS: In Core Option IDoMem=           1.
 CCSD(T)
 =======
 Iterations=  50 Convergence= 0.100D-06
 Produce multiple copies of IABC intergrals
 Iteration Nr.   1
 **********************
 DD1Dir will call FoFMem   1 times, MxPair=        20
 NAB=    10 NAA=     0 NBB=     0.
 MP4(R+Q)=  0.43087747D-02
 Maximum subspace dimension=  5
 A-vector RMS=  3.1020333D-03 Max=  1.3556292D-02 conv= 1.00D-05.
 RLE energy=       -0.2703758163
 E3=       -0.15200916D-02        EUMP3=      -0.76326409699D+02
 E4(DQ)=   -0.96502449D-03        UMP4(DQ)=   -0.76327374724D+02
 E4(SDQ)=  -0.31512456D-02        UMP4(SDQ)=  -0.76329560945D+02
 VARIATIONAL ENERGIES WITH THE FIRST-ORDER WAVEFUNCTION:
 DE(Corr)= -0.27034671     E(Corr)=     -76.322054623    
 NORM(A)=   0.10327967D+01
 Iteration Nr.   2
 **********************
 DD1Dir will call FoFMem   1 times, MxPair=        20
 NAB=    10 NAA=     0 NBB=     0.
 A-vector RMS=  3.4745949D-04 Max=  2.4440317D-03 conv= 1.00D-05.
 RLE energy=       -0.2768738787
 DE(Corr)= -0.27645255     E(CORR)=     -76.328160470     Delta=-6.11D-03
 NORM(A)=   0.10352916D+01
 Iteration Nr.   3
 **********************
 DD1Dir will call FoFMem   1 times, MxPair=        20
 NAB=    10 NAA=     0 NBB=     0.
 A-vector RMS=  4.4701488D-04 Max=  2.5304942D-03 conv= 1.00D-05.
 RLE energy=       -0.2772526663
 DE(Corr)= -0.27679762     E(CORR)=     -76.328505534     Delta=-3.45D-04
 NORM(A)=   0.10358254D+01
 Iteration Nr.   4
 **********************
 DD1Dir will call FoFMem   1 times, MxPair=        20
 NAB=    10 NAA=     0 NBB=     0.
 A-vector RMS=  7.4401914D-05 Max=  4.2560499D-04 conv= 1.00D-05.
 RLE energy=       -0.2772958018
 DE(Corr)= -0.27726053     E(CORR)=     -76.328968447     Delta=-4.63D-04
 NORM(A)=   0.10359657D+01
 Iteration Nr.   5
 **********************
 DD1Dir will call FoFMem   1 times, MxPair=        20
 NAB=    10 NAA=     0 NBB=     0.
 A-vector RMS=  3.4811093D-05 Max=  2.1551233D-04 conv= 1.00D-05.
 RLE energy=       -0.2773116984
 DE(Corr)= -0.27730458     E(CORR)=     -76.329012496     Delta=-4.40D-05
 NORM(A)=   0.10359943D+01
 Iteration Nr.   6
 **********************
 DD1Dir will call FoFMem   1 times, MxPair=        20
 NAB=    10 NAA=     0 NBB=     0.
 A-vector RMS=  8.2286703D-06 Max=  4.5418996D-05 conv= 1.00D-05.
 RLE energy=       -0.2773071417
 DE(Corr)= -0.27730831     E(CORR)=     -76.329016227     Delta=-3.73D-06
 NORM(A)=   0.10359965D+01
 Iteration Nr.   7
 **********************
 DD1Dir will call FoFMem   1 times, MxPair=        20
 NAB=    10 NAA=     0 NBB=     0.
 A-vector RMS=  2.9013350D-06 Max=  1.4591008D-05 conv= 1.00D-05.
 RLE energy=       -0.2773072902
 DE(Corr)= -0.27730836     E(CORR)=     -76.329016282     Delta=-5.47D-08
 NORM(A)=   0.10359972D+01
 Iteration Nr.   8
 **********************
 DD1Dir will call FoFMem   1 times, MxPair=        20
 NAB=    10 NAA=     0 NBB=     0.
 A-vector RMS=  1.1258275D-06 Max=  5.8150420D-06 conv= 1.00D-05.
 RLE energy=       -0.2773078899
 DE(Corr)= -0.27730803     E(CORR)=     -76.329015949     Delta= 3.33D-07
 NORM(A)=   0.10359977D+01
 Iteration Nr.   9
 **********************
 DD1Dir will call FoFMem   1 times, MxPair=        20
 NAB=    10 NAA=     0 NBB=     0.
 A-vector RMS=  2.9697476D-07 Max=  1.6464281D-06 conv= 1.00D-05.
 RLE energy=       -0.2773080165
 DE(Corr)= -0.27730804     E(CORR)=     -76.329015958     Delta=-9.16D-09
 NORM(A)=   0.10359979D+01
 CI/CC converged in    9 iterations to DelEn=-9.16D-09 Conv= 1.00D-07 ErrA1= 2.97D-07 Conv= 1.00D-05
 Wavefunction amplitudes converged. E(Corr)=     -76.329015958    
 Largest amplitude= 2.62D-02
 IPart=  4 IA=    6   11.23% done.
 IPart=  3 IA=   11   21.79% done.
 IPart=  1 IA=   16   31.68% done.
 IPart=  4 IA=   21   40.90% done.
 IPart=  3 IA=   27   51.08% done.
 IPart=  2 IA=   33   60.30% done.
 IPart=  2 IA=   41   71.10% done.
 IPart=  1 IA=   49   80.19% done.
 IPart=  4 IA=   61   90.62% done.
 Time for triples=        6.08 seconds.
 T4(CCSD)= -0.95895964D-02
 T5(CCSD)=  0.37135694D-03
 CCSD(T)= -0.76338234198D+02
 Discarding MO integrals.
 Leave Link  913 at Wed Feb  8 13:57:29 2023, MaxMem=   754974720 cpu:               9.7 elap:               2.5
 (Enter /opt/cluster/programs/g16-c.01/g16/l601.exe)
 Copying SCF densities to generalized density rwf, IOpCl= 0 IROHF=0.

 **********************************************************************

            Population analysis using the SCF Density.

 **********************************************************************

 Orbital symmetries:
       Occupied  (A1) (A1) (B2) (A1) (B1)
       Virtual   (A1) (B2) (A1) (B1) (A1) (B2) (B2) (A1) (A2) (B1)
                 (A1) (B2) (A1) (B2) (B2) (A1) (A1) (A2) (B1) (A1)
                 (B1) (B2) (A1) (B1) (A2) (B2) (A1) (A1) (B2) (B1)
                 (B2) (A2) (A1) (B2) (A2) (A1) (B1) (B2) (A1) (B2)
                 (A1) (B1) (A2) (A1) (B1) (A1) (B2) (A1) (B2) (B1)
                 (A1) (B2) (A2) (B2) (A1) (A2) (B1) (A1) (B1) (B2)
                 (A1) (A2) (B1) (B2) (A1) (B2) (A2) (B2) (A1) (B2)
                 (B1) (A1) (A1) (B2) (B1) (A1) (B1) (B2) (A2) (B1)
                 (A2) (A1) (A1) (A1) (B2) (B2) (A1)
 The electronic state is 1-A1.
 Alpha  occ. eigenvalues --  -20.57877  -1.33253  -0.67940  -0.58660  -0.50829
 Alpha virt. eigenvalues --    0.02832   0.04786   0.13459   0.16186   0.17460
 Alpha virt. eigenvalues --    0.18435   0.22030   0.24361   0.26740   0.29207
 Alpha virt. eigenvalues --    0.30539   0.36472   0.42734   0.45471   0.59361
 Alpha virt. eigenvalues --    0.66016   0.70069   0.72871   0.73223   0.82122
 Alpha virt. eigenvalues --    0.84827   0.90116   0.90430   0.91620   0.91935
 Alpha virt. eigenvalues --    0.93024   0.94594   1.00302   1.02802   1.07229
 Alpha virt. eigenvalues --    1.09534   1.16980   1.17571   1.28065   1.49088
 Alpha virt. eigenvalues --    1.49582   1.54196   1.82428   1.83612   1.91305
 Alpha virt. eigenvalues --    2.08012   2.26013   2.30419   2.33229   2.41316
 Alpha virt. eigenvalues --    2.41536   2.44261   2.51068   2.69896   2.70207
 Alpha virt. eigenvalues --    2.75190   2.75954   2.85759   3.59356   3.61676
 Alpha virt. eigenvalues --    4.00859   4.02760   4.06891   4.19379   4.20411
 Alpha virt. eigenvalues --    4.33958   4.35184   4.37653   4.48576   4.67674
 Alpha virt. eigenvalues --    4.73251   5.00644   5.07025   5.13537   5.20241
 Alpha virt. eigenvalues --    5.39473   5.51259   6.18436   6.49113   6.69134
 Alpha virt. eigenvalues --    6.86789   7.04817   7.10443   7.20154   7.24769
 Alpha virt. eigenvalues --    7.34041   7.35464   7.39837   7.77415   7.83954
 Alpha virt. eigenvalues --    8.58277  14.34134
          Condensed to atoms (all electrons):
               1          2          3
     1  O    7.997835   0.254650   0.254650
     2  H    0.254650   0.457601   0.034182
     3  H    0.254650   0.034182   0.457601
 Mulliken charges:
               1
     1  O   -0.507136
     2  H    0.253568
     3  H    0.253568
 Sum of Mulliken charges =   0.00000
 Mulliken charges with hydrogens summed into heavy atoms:
               1
     1  O    0.000000
 Electronic spatial extent (au):  <R**2>=             20.1475
 Charge=              0.0000 electrons
 Dipole moment (field-independent basis, Debye):
    X=             -0.0000    Y=             -0.0000    Z=             -2.1241  Tot=              2.1241
 Quadrupole moment (field-independent basis, Debye-Ang):
   XX=             -7.6650   YY=             -4.4171   ZZ=             -6.0712
   XY=              0.0000   XZ=              0.0000   YZ=              0.0000
 Traceless Quadrupole moment (field-independent basis, Debye-Ang):
   XX=             -1.6139   YY=              1.6340   ZZ=             -0.0200
   XY=              0.0000   XZ=              0.0000   YZ=              0.0000
 Octapole moment (field-independent basis, Debye-Ang**2):
  XXX=              0.0000  YYY=             -0.0000  ZZZ=             -1.2352  XYY=             -0.0000
  XXY=              0.0000  XXZ=             -0.2329  XZZ=             -0.0000  YZZ=             -0.0000
  YYZ=             -1.5347  XYZ=             -0.0000
 Hexadecapole moment (field-independent basis, Debye-Ang**3):
 XXXX=             -6.8626 YYYY=             -6.5295 ZZZZ=             -7.6673 XXXY=             -0.0000
 XXXZ=             -0.0000 YYYX=             -0.0000 YYYZ=              0.0000 ZZZX=             -0.0000
 ZZZY=             -0.0000 XXYY=             -2.5588 XXZZ=             -2.5000 YYZZ=             -1.8528
 XXYZ=             -0.0000 YYXZ=              0.0000 ZZXY=              0.0000
 N-N= 8.737590381170D+00 E-N=-1.979886384038D+02  KE= 7.578122331844D+01
 Symmetry A1   KE= 6.781209288264D+01
 Symmetry A2   KE=-9.318054883616D-20
 Symmetry B1   KE= 4.483044718281D+00
 Symmetry B2   KE= 3.486085717518D+00
 Leave Link  601 at Wed Feb  8 13:57:30 2023, MaxMem=   754974720 cpu:               0.3 elap:               0.1
 (Enter /opt/cluster/programs/g16-c.01/g16/l9999.exe)
 Unable to Open any file for archive entry.
 1\1\GINC-NODE65\SP\RCCSD(T)-FC\Aug-CC-pVTZ\H2O1\BOITTIER\08-Feb-2023\0
 \\#P CCSD(T)/aug-cc-pVTZ scf(maxcycle=200)\\Gaussian input\\0,1\O,0,0.
 ,0.11751,0.\H,0,0.7973622306,-0.5007896629,0.\H,0,-0.7287571056,-0.580
 339612,0.\\Version=ES64L-G16RevC.01\State=1-A1\HF=-76.0517079\MP2=-76.
 3248896\MP3=-76.3264097\MP4D=-76.3316835\MP4DQ=-76.3273747\MP4SDQ=-76.
 3295609\CCSD=-76.329016\CCSD(T)=-76.3382342\RMSD=6.144e-09\PG=C02V [C2
 (O1),SGV(H2)]\\@
 The archive entry for this job was punched.


 IF I AM NOT FOR MYSELF, WHO WILL BE?
 BUT IF I AM ONLY FOR MYSELF, WHAT AM I?
 THOUGH A SEEKER SINCE MY BIRTH,
 HERE IS ALL I'VE LEARNED ON EARTH,
 THIS IS THE GIST OF WHAT I KNOW:
 GIVE ADVICE AND BUY A FOE.

 PRESSED FOR RULES AND VERITIES,
 ALL I RECOLLECT ARE THESE:
 FEED A COLD TO STARVE A FEVER,
 ARGUE WITH NO TRUE-BELIEVER.
 THINK-TOO-LONG IS NEVER-ACT,
 SCRATCH A MYTH AND FIND A FACT.

 STITCH IN TIME SAVES TWENTY STITCHES,
 GIVE THE RICH TO PLEASE THEM, RICHES.
 GIVE TO LOVE YOU HEARTH AND HALL,
 BUT DO NOT GIVE ADVICE AT ALL.

                                  -- HILLEL
 Job cpu time:       0 days  0 hours  0 minutes 22.1 seconds.
 Elapsed time:       0 days  0 hours  0 minutes  6.5 seconds.
 File lengths (MBytes):  RWF=     64 Int=      0 D2E=      0 Chk=      2 Scr=      1
 Normal termination of Gaussian 16 at Wed Feb  8 13:57:32 2023.
