 Entering Gaussian System, Link 0=/opt/cluster/programs/g16-c.01/g16/g16
 Input=/scratch/boittier/jobs/tmp.7262491/gaussian_165_water_b3lyp_pdz.com
 Output=/scratch/boittier/jobs/tmp.7262491/gaussian_165_water_b3lyp_pdz.out
 Initial command:
 /opt/cluster/programs/g16-c.01/g16/l1.exe "/scratch/boittier/jobs/tmp.7262491/Gau-54943.inp" -scrdir="/scratch/boittier/jobs/tmp.7262491/"
 Entering Link 1 = /opt/cluster/programs/g16-c.01/g16/l1.exe PID=     54944.
  
 Copyright (c) 1988-2019, Gaussian, Inc.  All Rights Reserved.
  
 This is part of the Gaussian(R) 16 program.  It is based on
 the Gaussian(R) 09 system (copyright 2009, Gaussian, Inc.),
 the Gaussian(R) 03 system (copyright 2003, Gaussian, Inc.),
 the Gaussian(R) 98 system (copyright 1998, Gaussian, Inc.),
 the Gaussian(R) 94 system (copyright 1995, Gaussian, Inc.),
 the Gaussian 92(TM) system (copyright 1992, Gaussian, Inc.),
 the Gaussian 90(TM) system (copyright 1990, Gaussian, Inc.),
 the Gaussian 88(TM) system (copyright 1988, Gaussian, Inc.),
 the Gaussian 86(TM) system (copyright 1986, Carnegie Mellon
 University), and the Gaussian 82(TM) system (copyright 1983,
 Carnegie Mellon University). Gaussian is a federally registered
 trademark of Gaussian, Inc.
  
 This software contains proprietary and confidential information,
 including trade secrets, belonging to Gaussian, Inc.
  
 This software is provided under written license and may be
 used, copied, transmitted, or stored only in accord with that
 written license.
  
 The following legend is applicable only to US Government
 contracts under FAR:
  
                    RESTRICTED RIGHTS LEGEND
  
 Use, reproduction and disclosure by the US Government is
 subject to restrictions as set forth in subparagraphs (a)
 and (c) of the Commercial Computer Software - Restricted
 Rights clause in FAR 52.227-19.
  
 Gaussian, Inc.
 340 Quinnipiac St., Bldg. 40, Wallingford CT 06492
  
  
 ---------------------------------------------------------------
 Warning -- This program may not be used in any manner that
 competes with the business of Gaussian, Inc. or will provide
 assistance to any competitor of Gaussian, Inc.  The licensee
 of this program is prohibited from giving any competitor of
 Gaussian, Inc. access to this program.  By using this program,
 the user acknowledges that Gaussian, Inc. is engaged in the
 business of creating and licensing software in the field of
 computational chemistry and represents and warrants to the
 licensee that it is not a competitor of Gaussian, Inc. and that
 it will not use this program in any manner prohibited above.
 ---------------------------------------------------------------
  

 Cite this work as:
 Gaussian 16, Revision C.01,
 M. J. Frisch, G. W. Trucks, H. B. Schlegel, G. E. Scuseria, 
 M. A. Robb, J. R. Cheeseman, G. Scalmani, V. Barone, 
 G. A. Petersson, H. Nakatsuji, X. Li, M. Caricato, A. V. Marenich, 
 J. Bloino, B. G. Janesko, R. Gomperts, B. Mennucci, H. P. Hratchian, 
 J. V. Ortiz, A. F. Izmaylov, J. L. Sonnenberg, D. Williams-Young, 
 F. Ding, F. Lipparini, F. Egidi, J. Goings, B. Peng, A. Petrone, 
 T. Henderson, D. Ranasinghe, V. G. Zakrzewski, J. Gao, N. Rega, 
 G. Zheng, W. Liang, M. Hada, M. Ehara, K. Toyota, R. Fukuda, 
 J. Hasegawa, M. Ishida, T. Nakajima, Y. Honda, O. Kitao, H. Nakai, 
 T. Vreven, K. Throssell, J. A. Montgomery, Jr., J. E. Peralta, 
 F. Ogliaro, M. J. Bearpark, J. J. Heyd, E. N. Brothers, K. N. Kudin, 
 V. N. Staroverov, T. A. Keith, R. Kobayashi, J. Normand, 
 K. Raghavachari, A. P. Rendell, J. C. Burant, S. S. Iyengar, 
 J. Tomasi, M. Cossi, J. M. Millam, M. Klene, C. Adamo, R. Cammi, 
 J. W. Ochterski, R. L. Martin, K. Morokuma, O. Farkas, 
 J. B. Foresman, and D. J. Fox, Gaussian, Inc., Wallingford CT, 2019.
 
 ******************************************
 Gaussian 16:  ES64L-G16RevC.01  3-Jul-2019
                 8-Feb-2023 
 ******************************************
 %nproc=4
 Will use up to    4 processors via shared memory.
 %mem=5760MB
 %chk=gaussian_165_water_b3lyp_pdz.chk
 ---------------------------------
 #P B3LYP/6-31g* scf(maxcycle=200)
 ---------------------------------
 1/38=1,172=1/1;
 2/12=2,17=6,18=5,40=1/2;
 3/5=1,6=6,7=1,11=2,25=1,30=1,74=-5/1,2,3;
 4//1;
 5/5=2,7=200,38=5/2;
 6/7=2,8=2,9=2,10=2,28=1/1;
 99/5=1,9=1/99;
 Leave Link    1 at Wed Feb  8 14:52:33 2023, MaxMem=   754974720 cpu:               0.1 elap:               0.1
 (Enter /opt/cluster/programs/g16-c.01/g16/l101.exe)
 --------------
 Gaussian input
 --------------
 Symbolic Z-matrix:
 Charge =  0 Multiplicity = 1
 O                     0.        0.11751   0. 
 H                     0.79736  -0.50079   0. 
 H                    -0.6783   -0.62948   0. 
 
 ITRead=  0  0  0
 MicOpt= -1 -1 -1
 NAtoms=      3 NQM=        3 NQMF=       0 NMMI=      0 NMMIF=      0
                NMic=       0 NMicF=      0.
                    Isotopes and Nuclear Properties:
 (Nuclear quadrupole moments (NQMom) in fm**2, nuclear magnetic moments (NMagM)
  in nuclear magnetons)

  Atom         1           2           3
 IAtWgt=          16           1           1
 AtmWgt=  15.9949146   1.0078250   1.0078250
 NucSpn=           0           1           1
 AtZEff=  -0.0000000  -0.0000000  -0.0000000
 NQMom=    0.0000000   0.0000000   0.0000000
 NMagM=    0.0000000   2.7928460   2.7928460
 AtZNuc=   8.0000000   1.0000000   1.0000000
 Leave Link  101 at Wed Feb  8 14:52:33 2023, MaxMem=   754974720 cpu:               0.6 elap:               0.3
 (Enter /opt/cluster/programs/g16-c.01/g16/l202.exe)
                          Input orientation:                          
 ---------------------------------------------------------------------
 Center     Atomic      Atomic             Coordinates (Angstroms)
 Number     Number       Type             X           Y           Z
 ---------------------------------------------------------------------
      1          8           0        0.000000    0.117510    0.000000
      2          1           0        0.797362   -0.500790    0.000000
      3          1           0       -0.678302   -0.629475    0.000000
 ---------------------------------------------------------------------
                    Distance matrix (angstroms):
                    1          2          3
     1  O    0.000000
     2  H    1.009000   0.000000
     3  H    1.009000   1.481265   0.000000
 Stoichiometry    H2O
 Framework group  C2V[C2(O),SGV(H2)]
 Deg. of freedom     2
 Full point group                 C2V     NOp   4
 Largest Abelian subgroup         C2V     NOp   4
 Largest concise Abelian subgroup C2      NOp   2
                         Standard orientation:                         
 ---------------------------------------------------------------------
 Center     Atomic      Atomic             Coordinates (Angstroms)
 Number     Number       Type             X           Y           Z
 ---------------------------------------------------------------------
      1          8           0       -0.000000    0.000000    0.137047
      2          1           0        0.000000    0.740632   -0.548187
      3          1           0       -0.000000   -0.740632   -0.548187
 ---------------------------------------------------------------------
 Rotational constants (GHZ):         601.2716082         457.0845456         259.6781422
 Leave Link  202 at Wed Feb  8 14:52:33 2023, MaxMem=   754974720 cpu:               0.0 elap:               0.0
 (Enter /opt/cluster/programs/g16-c.01/g16/l301.exe)
 Standard basis: 6-31G(d) (6D, 7F)
 Ernie: Thresh=  0.10000D-02 Tol=  0.10000D-05 Strict=F.
 There are    10 symmetry adapted cartesian basis functions of A1  symmetry.
 There are     1 symmetry adapted cartesian basis functions of A2  symmetry.
 There are     3 symmetry adapted cartesian basis functions of B1  symmetry.
 There are     5 symmetry adapted cartesian basis functions of B2  symmetry.
 There are    10 symmetry adapted basis functions of A1  symmetry.
 There are     1 symmetry adapted basis functions of A2  symmetry.
 There are     3 symmetry adapted basis functions of B1  symmetry.
 There are     5 symmetry adapted basis functions of B2  symmetry.
    19 basis functions,    36 primitive gaussians,    19 cartesian basis functions
     5 alpha electrons        5 beta electrons
       nuclear repulsion energy         8.7485603761 Hartrees.
 IExCor=  402 DFT=T Ex+Corr=B3LYP ExCW=0 ScaHFX=  0.200000
 ScaDFX=  0.800000  0.720000  1.000000  0.810000 ScalE2=  1.000000  1.000000
 IRadAn=      5 IRanWt=     -1 IRanGd=            0 ICorTp=0 IEmpDi=  4
 NAtoms=    3 NActive=    3 NUniq=    2 SFac= 2.25D+00 NAtFMM=   60 NAOKFM=F Big=F
 Integral buffers will be    131072 words long.
 Raffenetti 2 integral format.
 Two-electron integral symmetry is turned on.
 Leave Link  301 at Wed Feb  8 14:52:34 2023, MaxMem=   754974720 cpu:               0.2 elap:               0.1
 (Enter /opt/cluster/programs/g16-c.01/g16/l302.exe)
 NPDir=0 NMtPBC=     1 NCelOv=     1 NCel=       1 NClECP=     1 NCelD=      1
         NCelK=      1 NCelE2=     1 NClLst=     1 CellRange=     0.0.
 One-electron integrals computed using PRISM.
 One-electron integral symmetry used in STVInt
 NBasis=    19 RedAO= T EigKep=  2.43D-02  NBF=    10     1     3     5
 NBsUse=    19 1.00D-06 EigRej= -1.00D+00 NBFU=    10     1     3     5
 Precomputing XC quadrature grid using
 IXCGrd= 4 IRadAn=           5 IRanWt=          -1 IRanGd=           0 AccXCQ= 0.00D+00.
 Generated NRdTot=       0 NPtTot=           0 NUsed=           0 NTot=          32
 NSgBfM=    19    19    19    19    19 MxSgAt=     3 MxSgA2=     3.
 Leave Link  302 at Wed Feb  8 14:52:34 2023, MaxMem=   754974720 cpu:               0.4 elap:               0.1
 (Enter /opt/cluster/programs/g16-c.01/g16/l303.exe)
 DipDrv:  MaxL=1.
 Leave Link  303 at Wed Feb  8 14:52:34 2023, MaxMem=   754974720 cpu:               0.3 elap:               0.1
 (Enter /opt/cluster/programs/g16-c.01/g16/l401.exe)
 ExpMin= 1.61D-01 ExpMax= 5.48D+03 ExpMxC= 8.25D+02 IAcc=3 IRadAn=         5 AccDes= 0.00D+00
 Harris functional with IExCor=  402 and IRadAn=       5 diagonalized for initial guess.
 HarFok:  IExCor=  402 AccDes= 0.00D+00 IRadAn=         5 IDoV= 1 UseB2=F ITyADJ=14
 ICtDFT=  3500011 ScaDFX=  1.000000  1.000000  1.000000  1.000000
 FoFCou: FMM=F IPFlag=           0 FMFlag=      100000 FMFlg1=           0
         NFxFlg=           0 DoJE=T BraDBF=F KetDBF=T FulRan=T
         wScrn=  0.000000 ICntrl=       500 IOpCl=  0 I1Cent=   200000004 NGrid=           0
         NMat0=    1 NMatS0=      1 NMatT0=    0 NMatD0=    1 NMtDS0=    0 NMtDT0=    0
 Petite list used in FoFCou.
 Harris En= -76.4393730940415    
 JPrj=0 DoOrth=F DoCkMO=F.
 Initial guess orbital symmetries:
       Occupied  (A1) (A1) (B2) (A1) (B1)
       Virtual   (A1) (B2) (B2) (A1) (B1) (A1) (B2) (A1) (A1) (A2)
                 (B1) (A1) (B2) (A1)
 The electronic state of the initial guess is 1-A1.
 Leave Link  401 at Wed Feb  8 14:52:34 2023, MaxMem=   754974720 cpu:               1.1 elap:               0.4
 (Enter /opt/cluster/programs/g16-c.01/g16/l502.exe)
 Keep R1 ints in memory in symmetry-blocked form, NReq=3471409.
 FoFCou: FMM=F IPFlag=           0 FMFlag=           0 FMFlg1=           0
         NFxFlg=           0 DoJE=F BraDBF=F KetDBF=F FulRan=T
         wScrn=  0.000000 ICntrl=       600 IOpCl=  0 I1Cent=           0 NGrid=           0
         NMat0=    1 NMatS0=    190 NMatT0=    0 NMatD0=    1 NMtDS0=    0 NMtDT0=    0
 Petite list used in FoFCou.
 Closed shell SCF:
 Using DIIS extrapolation, IDIIS=  1040.
 NGot=   754974720 LenX=   754966727 LenY=   754965845
 Requested convergence on RMS density matrix=1.00D-08 within 200 cycles.
 Requested convergence on MAX density matrix=1.00D-06.
 Requested convergence on             energy=1.00D-06.
 No special actions if energy rises.
 Integral accuracy reduced to 1.0D-05 until final iterations.

 Cycle   1  Pass 0  IDiag  1:
 E= -76.3297387679165    
 DIIS: error= 7.25D-02 at cycle   1 NSaved=   1.
 NSaved= 1 IEnMin= 1 EnMin= -76.3297387679165     IErMin= 1 ErrMin= 7.25D-02
 ErrMax= 7.25D-02  0.00D+00 EMaxC= 1.00D-01 BMatC= 9.71D-02 BMatP= 9.71D-02
 IDIUse=3 WtCom= 2.75D-01 WtEn= 7.25D-01
 Coeff-Com:  0.100D+01
 Coeff-En:   0.100D+01
 Coeff:      0.100D+01
 Gap=     0.199 Goal=   None    Shift=    0.000
 GapD=    0.199 DampG=1.000 DampE=0.500 DampFc=0.5000 IDamp=-1.
 Damping current iteration by 5.00D-01
 RMSDP=3.15D-02 MaxDP=2.63D-01              OVMax= 2.20D-01

 Cycle   2  Pass 0  IDiag  1:
 E= -76.3516822145727     Delta-E=       -0.021943446656 Rises=F Damp=T
 DIIS: error= 2.28D-02 at cycle   2 NSaved=   2.
 NSaved= 2 IEnMin= 2 EnMin= -76.3516822145727     IErMin= 2 ErrMin= 2.28D-02
 ErrMax= 2.28D-02  0.00D+00 EMaxC= 1.00D-01 BMatC= 8.69D-03 BMatP= 9.71D-02
 IDIUse=3 WtCom= 7.72D-01 WtEn= 2.28D-01
 Coeff-Com:  0.218D+00 0.782D+00
 Coeff-En:   0.346D+00 0.654D+00
 Coeff:      0.247D+00 0.753D+00
 Gap=     0.325 Goal=   None    Shift=    0.000
 RMSDP=4.24D-03 MaxDP=4.75D-02 DE=-2.19D-02 OVMax= 1.23D-01

 Cycle   3  Pass 0  IDiag  1:
 E= -76.4043735105196     Delta-E=       -0.052691295947 Rises=F Damp=F
 DIIS: error= 4.69D-03 at cycle   3 NSaved=   3.
 NSaved= 3 IEnMin= 3 EnMin= -76.4043735105196     IErMin= 3 ErrMin= 4.69D-03
 ErrMax= 4.69D-03  0.00D+00 EMaxC= 1.00D-01 BMatC= 4.01D-04 BMatP= 8.69D-03
 IDIUse=3 WtCom= 9.53D-01 WtEn= 4.69D-02
 Coeff-Com:  0.510D-01-0.412D-01 0.990D+00
 Coeff-En:   0.000D+00 0.000D+00 0.100D+01
 Coeff:      0.486D-01-0.392D-01 0.991D+00
 Gap=     0.341 Goal=   None    Shift=    0.000
 RMSDP=7.33D-04 MaxDP=6.67D-03 DE=-5.27D-02 OVMax= 5.12D-03

 Cycle   4  Pass 0  IDiag  1:
 E= -76.4046552426959     Delta-E=       -0.000281732176 Rises=F Damp=F
 DIIS: error= 3.64D-04 at cycle   4 NSaved=   4.
 NSaved= 4 IEnMin= 4 EnMin= -76.4046552426959     IErMin= 4 ErrMin= 3.64D-04
 ErrMax= 3.64D-04  0.00D+00 EMaxC= 1.00D-01 BMatC= 2.02D-06 BMatP= 4.01D-04
 IDIUse=3 WtCom= 9.96D-01 WtEn= 3.64D-03
 Coeff-Com:  0.828D-02-0.216D-01 0.228D+00 0.785D+00
 Coeff-En:   0.000D+00 0.000D+00 0.000D+00 0.100D+01
 Coeff:      0.825D-02-0.215D-01 0.227D+00 0.786D+00
 Gap=     0.341 Goal=   None    Shift=    0.000
 RMSDP=4.76D-05 MaxDP=3.40D-04 DE=-2.82D-04 OVMax= 3.88D-04

 Cycle   5  Pass 0  IDiag  1:
 E= -76.4046567421133     Delta-E=       -0.000001499417 Rises=F Damp=F
 DIIS: error= 7.17D-05 at cycle   5 NSaved=   5.
 NSaved= 5 IEnMin= 5 EnMin= -76.4046567421133     IErMin= 5 ErrMin= 7.17D-05
 ErrMax= 7.17D-05  0.00D+00 EMaxC= 1.00D-01 BMatC= 7.98D-08 BMatP= 2.02D-06
 IDIUse=1 WtCom= 1.00D+00 WtEn= 0.00D+00
 Coeff-Com:  0.768D-03-0.652D-03 0.802D-03 0.512D-02 0.994D+00
 Coeff:      0.768D-03-0.652D-03 0.802D-03 0.512D-02 0.994D+00
 Gap=     0.341 Goal=   None    Shift=    0.000
 RMSDP=1.21D-05 MaxDP=1.15D-04 DE=-1.50D-06 OVMax= 7.47D-05

 Cycle   6  Pass 0  IDiag  1:
 E= -76.4046568025105     Delta-E=       -0.000000060397 Rises=F Damp=F
 DIIS: error= 1.13D-06 at cycle   6 NSaved=   6.
 NSaved= 6 IEnMin= 6 EnMin= -76.4046568025105     IErMin= 6 ErrMin= 1.13D-06
 ErrMax= 1.13D-06  0.00D+00 EMaxC= 1.00D-01 BMatC= 1.06D-11 BMatP= 7.98D-08
 IDIUse=1 WtCom= 1.00D+00 WtEn= 0.00D+00
 Coeff-Com: -0.319D-04 0.272D-04-0.363D-03-0.942D-03-0.278D-01 0.103D+01
 Coeff:     -0.319D-04 0.272D-04-0.363D-03-0.942D-03-0.278D-01 0.103D+01
 Gap=     0.341 Goal=   None    Shift=    0.000
 RMSDP=1.83D-07 MaxDP=1.74D-06 DE=-6.04D-08 OVMax= 1.40D-06

 Initial convergence to 1.0D-05 achieved.  Increase integral accuracy.
 Cycle   7  Pass 1  IDiag  1:
 E= -76.4046587462063     Delta-E=       -0.000001943696 Rises=F Damp=F
 DIIS: error= 5.81D-07 at cycle   1 NSaved=   1.
 NSaved= 1 IEnMin= 1 EnMin= -76.4046587462063     IErMin= 1 ErrMin= 5.81D-07
 ErrMax= 5.81D-07  0.00D+00 EMaxC= 1.00D-01 BMatC= 3.15D-12 BMatP= 3.15D-12
 IDIUse=1 WtCom= 1.00D+00 WtEn= 0.00D+00
 Coeff-Com:  0.100D+01
 Coeff:      0.100D+01
 Gap=     0.341 Goal=   None    Shift=    0.000
 RMSDP=1.83D-07 MaxDP=1.74D-06 DE=-1.94D-06 OVMax= 9.91D-07

 Cycle   8  Pass 1  IDiag  1:
 E= -76.4046587462070     Delta-E=       -0.000000000001 Rises=F Damp=F
 DIIS: error= 3.67D-07 at cycle   2 NSaved=   2.
 NSaved= 2 IEnMin= 2 EnMin= -76.4046587462070     IErMin= 2 ErrMin= 3.67D-07
 ErrMax= 3.67D-07  0.00D+00 EMaxC= 1.00D-01 BMatC= 2.46D-12 BMatP= 3.15D-12
 IDIUse=1 WtCom= 1.00D+00 WtEn= 0.00D+00
 Coeff-Com:  0.462D+00 0.538D+00
 Coeff:      0.462D+00 0.538D+00
 Gap=     0.341 Goal=   None    Shift=    0.000
 RMSDP=7.38D-08 MaxDP=5.63D-07 DE=-7.25D-13 OVMax= 5.52D-07

 Cycle   9  Pass 1  IDiag  1:
 E= -76.4046587462085     Delta-E=       -0.000000000002 Rises=F Damp=F
 DIIS: error= 1.49D-07 at cycle   3 NSaved=   3.
 NSaved= 3 IEnMin= 3 EnMin= -76.4046587462085     IErMin= 3 ErrMin= 1.49D-07
 ErrMax= 1.49D-07  0.00D+00 EMaxC= 1.00D-01 BMatC= 3.06D-13 BMatP= 2.46D-12
 IDIUse=1 WtCom= 1.00D+00 WtEn= 0.00D+00
 Coeff-Com: -0.130D-01 0.256D+00 0.757D+00
 Coeff:     -0.130D-01 0.256D+00 0.757D+00
 Gap=     0.341 Goal=   None    Shift=    0.000
 RMSDP=1.95D-08 MaxDP=1.46D-07 DE=-1.51D-12 OVMax= 1.38D-07

 Cycle  10  Pass 1  IDiag  1:
 E= -76.4046587462087     Delta-E=       -0.000000000000 Rises=F Damp=F
 DIIS: error= 3.71D-09 at cycle   4 NSaved=   4.
 NSaved= 4 IEnMin= 4 EnMin= -76.4046587462087     IErMin= 4 ErrMin= 3.71D-09
 ErrMax= 3.71D-09  0.00D+00 EMaxC= 1.00D-01 BMatC= 2.15D-16 BMatP= 3.06D-13
 IDIUse=1 WtCom= 1.00D+00 WtEn= 0.00D+00
 Coeff-Com: -0.394D-02 0.103D-01 0.546D-01 0.939D+00
 Coeff:     -0.394D-02 0.103D-01 0.546D-01 0.939D+00
 Gap=     0.341 Goal=   None    Shift=    0.000
 RMSDP=4.94D-10 MaxDP=3.20D-09 DE=-1.71D-13 OVMax= 3.65D-09

 SCF Done:  E(RB3LYP) =  -76.4046587462     A.U. after   10 cycles
            NFock= 10  Conv=0.49D-09     -V/T= 2.0092
 KE= 7.571051200150D+01 PE=-1.979993947951D+02 EE= 3.713566367127D+01
 Leave Link  502 at Wed Feb  8 14:52:37 2023, MaxMem=   754974720 cpu:               6.2 elap:               3.1
 (Enter /opt/cluster/programs/g16-c.01/g16/l601.exe)
 Copying SCF densities to generalized density rwf, IOpCl= 0 IROHF=0.

 **********************************************************************

            Population analysis using the SCF Density.

 **********************************************************************

 Orbital symmetries:
       Occupied  (A1) (A1) (B2) (A1) (B1)
       Virtual   (A1) (B2) (B2) (A1) (B1) (A1) (B2) (A1) (A1) (A2)
                 (B1) (A1) (B2) (A1)
 The electronic state is 1-A1.
 Alpha  occ. eigenvalues --  -19.14981  -0.98931  -0.48702  -0.38888  -0.29178
 Alpha virt. eigenvalues --    0.04938   0.13015   0.72922   0.84053   0.88864
 Alpha virt. eigenvalues --    0.89456   1.04870   1.22558   1.71574   1.76119
 Alpha virt. eigenvalues --    1.77510   2.24745   2.47859   3.51527
          Condensed to atoms (all electrons):
               1          2          3
     1  O    8.289953   0.227938   0.227938
     2  H    0.227938   0.426215  -0.027069
     3  H    0.227938  -0.027069   0.426215
 Mulliken charges:
               1
     1  O   -0.745830
     2  H    0.372915
     3  H    0.372915
 Sum of Mulliken charges =   0.00000
 Mulliken charges with hydrogens summed into heavy atoms:
               1
     1  O    0.000000
 Electronic spatial extent (au):  <R**2>=             19.7703
 Charge=              0.0000 electrons
 Dipole moment (field-independent basis, Debye):
    X=             -0.0000    Y=             -0.0000    Z=             -2.2370  Tot=              2.2370
 Quadrupole moment (field-independent basis, Debye-Ang):
   XX=             -7.2847   YY=             -4.6744   ZZ=             -5.7546
   XY=              0.0000   XZ=              0.0000   YZ=             -0.0000
 Traceless Quadrupole moment (field-independent basis, Debye-Ang):
   XX=             -1.3801   YY=              1.2302   ZZ=              0.1499
   XY=              0.0000   XZ=              0.0000   YZ=             -0.0000
 Octapole moment (field-independent basis, Debye-Ang**2):
  XXX=              0.0000  YYY=              0.0000  ZZZ=             -1.3241  XYY=             -0.0000
  XXY=             -0.0000  XXZ=             -0.3095  XZZ=             -0.0000  YZZ=              0.0000
  YYZ=             -1.2163  XYZ=             -0.0000
 Hexadecapole moment (field-independent basis, Debye-Ang**3):
 XXXX=             -5.3098 YYYY=             -6.6863 ZZZZ=             -6.7776 XXXY=             -0.0000
 XXXZ=             -0.0000 YYYX=             -0.0000 YYYZ=             -0.0000 ZZZX=             -0.0000
 ZZZY=             -0.0000 XXYY=             -2.1986 XXZZ=             -2.0971 YYZZ=             -1.8041
 XXYZ=             -0.0000 YYXZ=              0.0000 ZZXY=              0.0000
 N-N= 8.748560376110D+00 E-N=-1.979993947290D+02  KE= 7.571051200150D+01
 Symmetry A1   KE= 6.757055549118D+01
 Symmetry A2   KE= 3.924302411918D-35
 Symmetry B1   KE= 4.619710811237D+00
 Symmetry B2   KE= 3.520245699081D+00
 No NMR shielding tensors so no spin-rotation constants.
 Leave Link  601 at Wed Feb  8 14:52:38 2023, MaxMem=   754974720 cpu:               1.1 elap:               0.6
 (Enter /opt/cluster/programs/g16-c.01/g16/l9999.exe)
 Unable to Open any file for archive entry.
 1\1\GINC-NODE58\SP\RB3LYP\6-31G(d)\H2O1\BOITTIER\08-Feb-2023\0\\#P B3L
 YP/6-31g* scf(maxcycle=200)\\Gaussian input\\0,1\O,0,0.,0.11751,0.\H,0
 ,0.7973622306,-0.5007896629,0.\H,0,-0.6783023618,-0.6294752114,0.\\Ver
 sion=ES64L-G16RevC.01\State=1-A1\HF=-76.4046587\RMSD=4.938e-10\Dipole=
 0.0764591,-0.8767726,0.\Quadrupole=0.908531,0.1175374,-1.0260684,0.069
 5073,0.,0.\PG=C02V [C2(O1),SGV(H2)]\\@
 The archive entry for this job was punched.


 AND HERE I AM, FOR ALL MY LORE,
 THE WRETCHED FOOL I WAS BEFORE.
 CALLED MASTER OF ARTS, AND DOCTOR TO BOOT,
 FOR TEN YEARS ALMOST I CONFUTE
 AND UP AND DOWN, WHEREVER IT GOES
 I DRAG MY STUDENTS BY THE NOSE --
 AND SEE THAT FOR ALL OUR SCIENCE AND ART
 WE CAN KNOW NOTHING.  IT BURNS MY HEART.

                                       -- FAUST
 Job cpu time:       0 days  0 hours  0 minutes 10.1 seconds.
 Elapsed time:       0 days  0 hours  0 minutes  4.8 seconds.
 File lengths (MBytes):  RWF=      6 Int=      0 D2E=      0 Chk=      1 Scr=      1
 Normal termination of Gaussian 16 at Wed Feb  8 14:52:38 2023.
