 Entering Gaussian System, Link 0=/opt/cluster/programs/g16-c.01/g16/g16
 Input=/scratch/boittier/jobs/tmp.7261811/gaussian_136_water_ccsdt_atz.com
 Output=/scratch/boittier/jobs/tmp.7261811/gaussian_136_water_ccsdt_atz.out
 Initial command:
 /opt/cluster/programs/g16-c.01/g16/l1.exe "/scratch/boittier/jobs/tmp.7261811/Gau-98648.inp" -scrdir="/scratch/boittier/jobs/tmp.7261811/"
 Entering Link 1 = /opt/cluster/programs/g16-c.01/g16/l1.exe PID=     98649.
  
 Copyright (c) 1988-2019, Gaussian, Inc.  All Rights Reserved.
  
 This is part of the Gaussian(R) 16 program.  It is based on
 the Gaussian(R) 09 system (copyright 2009, Gaussian, Inc.),
 the Gaussian(R) 03 system (copyright 2003, Gaussian, Inc.),
 the Gaussian(R) 98 system (copyright 1998, Gaussian, Inc.),
 the Gaussian(R) 94 system (copyright 1995, Gaussian, Inc.),
 the Gaussian 92(TM) system (copyright 1992, Gaussian, Inc.),
 the Gaussian 90(TM) system (copyright 1990, Gaussian, Inc.),
 the Gaussian 88(TM) system (copyright 1988, Gaussian, Inc.),
 the Gaussian 86(TM) system (copyright 1986, Carnegie Mellon
 University), and the Gaussian 82(TM) system (copyright 1983,
 Carnegie Mellon University). Gaussian is a federally registered
 trademark of Gaussian, Inc.
  
 This software contains proprietary and confidential information,
 including trade secrets, belonging to Gaussian, Inc.
  
 This software is provided under written license and may be
 used, copied, transmitted, or stored only in accord with that
 written license.
  
 The following legend is applicable only to US Government
 contracts under FAR:
  
                    RESTRICTED RIGHTS LEGEND
  
 Use, reproduction and disclosure by the US Government is
 subject to restrictions as set forth in subparagraphs (a)
 and (c) of the Commercial Computer Software - Restricted
 Rights clause in FAR 52.227-19.
  
 Gaussian, Inc.
 340 Quinnipiac St., Bldg. 40, Wallingford CT 06492
  
  
 ---------------------------------------------------------------
 Warning -- This program may not be used in any manner that
 competes with the business of Gaussian, Inc. or will provide
 assistance to any competitor of Gaussian, Inc.  The licensee
 of this program is prohibited from giving any competitor of
 Gaussian, Inc. access to this program.  By using this program,
 the user acknowledges that Gaussian, Inc. is engaged in the
 business of creating and licensing software in the field of
 computational chemistry and represents and warrants to the
 licensee that it is not a competitor of Gaussian, Inc. and that
 it will not use this program in any manner prohibited above.
 ---------------------------------------------------------------
  

 Cite this work as:
 Gaussian 16, Revision C.01,
 M. J. Frisch, G. W. Trucks, H. B. Schlegel, G. E. Scuseria, 
 M. A. Robb, J. R. Cheeseman, G. Scalmani, V. Barone, 
 G. A. Petersson, H. Nakatsuji, X. Li, M. Caricato, A. V. Marenich, 
 J. Bloino, B. G. Janesko, R. Gomperts, B. Mennucci, H. P. Hratchian, 
 J. V. Ortiz, A. F. Izmaylov, J. L. Sonnenberg, D. Williams-Young, 
 F. Ding, F. Lipparini, F. Egidi, J. Goings, B. Peng, A. Petrone, 
 T. Henderson, D. Ranasinghe, V. G. Zakrzewski, J. Gao, N. Rega, 
 G. Zheng, W. Liang, M. Hada, M. Ehara, K. Toyota, R. Fukuda, 
 J. Hasegawa, M. Ishida, T. Nakajima, Y. Honda, O. Kitao, H. Nakai, 
 T. Vreven, K. Throssell, J. A. Montgomery, Jr., J. E. Peralta, 
 F. Ogliaro, M. J. Bearpark, J. J. Heyd, E. N. Brothers, K. N. Kudin, 
 V. N. Staroverov, T. A. Keith, R. Kobayashi, J. Normand, 
 K. Raghavachari, A. P. Rendell, J. C. Burant, S. S. Iyengar, 
 J. Tomasi, M. Cossi, J. M. Millam, M. Klene, C. Adamo, R. Cammi, 
 J. W. Ochterski, R. L. Martin, K. Morokuma, O. Farkas, 
 J. B. Foresman, and D. J. Fox, Gaussian, Inc., Wallingford CT, 2019.
 
 ******************************************
 Gaussian 16:  ES64L-G16RevC.01  3-Jul-2019
                 8-Feb-2023 
 ******************************************
 %nproc=4
 Will use up to    4 processors via shared memory.
 %mem=5760MB
 %chk=gaussian_136_water_ccsdt_atz.chk
 ----------------------------------------
 #P CCSD(T)/aug-cc-pVTZ scf(maxcycle=200)
 ----------------------------------------
 1/38=1,172=1/1;
 2/12=2,17=6,18=5,40=1/2;
 3/5=16,6=1,7=10,11=9,25=1,30=1/1,2,3;
 4//1;
 5/5=2,7=200,38=5/2;
 8/6=4,9=120000,10=1/1,4;
 9/5=7,14=2/13;
 6/7=2,8=2,9=2,10=2/1;
 99/5=1,9=1/99;
 Leave Link    1 at Wed Feb  8 13:55:41 2023, MaxMem=   754974720 cpu:               0.1 elap:               0.0
 (Enter /opt/cluster/programs/g16-c.01/g16/l101.exe)
 --------------
 Gaussian input
 --------------
 Symbolic Z-matrix:
 Charge =  0 Multiplicity = 1
 O                     0.        0.11751   0. 
 H                     0.79736  -0.50079   0. 
 H                    -0.81867  -0.27753   0. 
 
 ITRead=  0  0  0
 MicOpt= -1 -1 -1
 NAtoms=      3 NQM=        3 NQMF=       0 NMMI=      0 NMMIF=      0
                NMic=       0 NMicF=      0.
                    Isotopes and Nuclear Properties:
 (Nuclear quadrupole moments (NQMom) in fm**2, nuclear magnetic moments (NMagM)
  in nuclear magnetons)

  Atom         1           2           3
 IAtWgt=          16           1           1
 AtmWgt=  15.9949146   1.0078250   1.0078250
 NucSpn=           0           1           1
 AtZEff=  -0.0000000  -0.0000000  -0.0000000
 NQMom=    0.0000000   0.0000000   0.0000000
 NMagM=    0.0000000   2.7928460   2.7928460
 AtZNuc=   8.0000000   1.0000000   1.0000000
 Leave Link  101 at Wed Feb  8 13:55:41 2023, MaxMem=   754974720 cpu:               0.7 elap:               0.2
 (Enter /opt/cluster/programs/g16-c.01/g16/l202.exe)
                          Input orientation:                          
 ---------------------------------------------------------------------
 Center     Atomic      Atomic             Coordinates (Angstroms)
 Number     Number       Type             X           Y           Z
 ---------------------------------------------------------------------
      1          8           0        0.000000    0.117510    0.000000
      2          1           0        0.797362   -0.500790    0.000000
      3          1           0       -0.818673   -0.277528    0.000000
 ---------------------------------------------------------------------
                    Distance matrix (angstroms):
                    1          2          3
     1  O    0.000000
     2  H    1.009000   0.000000
     3  H    0.909000   1.631385   0.000000
 Stoichiometry    H2O
 Framework group  CS[SG(H2O)]
 Deg. of freedom     3
 Full point group                 CS      NOp   2
 Largest Abelian subgroup         CS      NOp   2
 Largest concise Abelian subgroup C1      NOp   1
                         Standard orientation:                         
 ---------------------------------------------------------------------
 Center     Atomic      Atomic             Coordinates (Angstroms)
 Number     Number       Type             X           Y           Z
 ---------------------------------------------------------------------
      1          8           0        0.000000    0.101356    0.000000
      2          1           0        0.810186   -0.500041   -0.000000
      3          1           0       -0.810186   -0.310808    0.000000
 ---------------------------------------------------------------------
 Rotational constants (GHZ):        1122.0085721         374.2341109         280.6322030
 Leave Link  202 at Wed Feb  8 13:55:41 2023, MaxMem=   754974720 cpu:               0.1 elap:               0.0
 (Enter /opt/cluster/programs/g16-c.01/g16/l301.exe)
 Standard basis: Aug-CC-pVTZ (5D, 7F)
 Ernie: Thresh=  0.10000D-02 Tol=  0.10000D-05 Strict=F.
 Ernie:  3 primitive shells out of 52 were deleted.
 There are    73 symmetry adapted cartesian basis functions of A'  symmetry.
 There are    32 symmetry adapted cartesian basis functions of A"  symmetry.
 There are    62 symmetry adapted basis functions of A'  symmetry.
 There are    30 symmetry adapted basis functions of A"  symmetry.
    92 basis functions,   126 primitive gaussians,   105 cartesian basis functions
     5 alpha electrons        5 beta electrons
       nuclear repulsion energy         9.1772549095 Hartrees.
 IExCor=    0 DFT=F Ex=HF Corr=None ExCW=0 ScaHFX=  1.000000
 ScaDFX=  1.000000  1.000000  1.000000  1.000000 ScalE2=  1.000000  1.000000
 IRadAn=      5 IRanWt=     -1 IRanGd=            0 ICorTp=0 IEmpDi=  4
 NAtoms=    3 NActive=    3 NUniq=    3 SFac= 1.00D+00 NAtFMM=   60 NAOKFM=F Big=F
 Integral buffers will be    131072 words long.
 Raffenetti 1 integral format.
 Two-electron integral symmetry is turned on.
 Leave Link  301 at Wed Feb  8 13:55:41 2023, MaxMem=   754974720 cpu:               0.2 elap:               0.1
 (Enter /opt/cluster/programs/g16-c.01/g16/l302.exe)
 NPDir=0 NMtPBC=     1 NCelOv=     1 NCel=       1 NClECP=     1 NCelD=      1
         NCelK=      1 NCelE2=     1 NClLst=     1 CellRange=     0.0.
 One-electron integrals computed using PRISM.
 One-electron integral symmetry used in STVInt
 NBasis=    92 RedAO= T EigKep=  3.20D-04  NBF=    62    30
 NBsUse=    92 1.00D-06 EigRej= -1.00D+00 NBFU=    62    30
 Leave Link  302 at Wed Feb  8 13:55:42 2023, MaxMem=   754974720 cpu:               1.8 elap:               0.6
 (Enter /opt/cluster/programs/g16-c.01/g16/l303.exe)
 DipDrv:  MaxL=1.
 Leave Link  303 at Wed Feb  8 13:55:42 2023, MaxMem=   754974720 cpu:               0.2 elap:               0.1
 (Enter /opt/cluster/programs/g16-c.01/g16/l401.exe)
 ExpMin= 2.53D-02 ExpMax= 1.53D+04 ExpMxC= 5.22D+02 IAcc=3 IRadAn=         5 AccDes= 0.00D+00
 Harris functional with IExCor=  205 and IRadAn=       5 diagonalized for initial guess.
 HarFok:  IExCor=  205 AccDes= 0.00D+00 IRadAn=         5 IDoV= 1 UseB2=F ITyADJ=14
 ICtDFT=  3500011 ScaDFX=  1.000000  1.000000  1.000000  1.000000
 FoFCou: FMM=F IPFlag=           0 FMFlag=      100000 FMFlg1=           0
         NFxFlg=           0 DoJE=T BraDBF=F KetDBF=T FulRan=T
         wScrn=  0.000000 ICntrl=       500 IOpCl=  0 I1Cent=   200000004 NGrid=           0
         NMat0=    1 NMatS0=      1 NMatT0=    0 NMatD0=    1 NMtDS0=    0 NMtDT0=    0
 Petite list used in FoFCou.
 Harris En= -76.1489035780215    
 JPrj=0 DoOrth=F DoCkMO=F.
 Initial guess orbital symmetries:
       Occupied  (A') (A') (A') (A') (A")
       Virtual   (A') (A') (A') (A") (A') (A') (A') (A') (A") (A')
                 (A") (A') (A') (A') (A') (A') (A') (A") (A") (A')
                 (A') (A") (A") (A') (A") (A') (A') (A') (A') (A")
                 (A') (A') (A") (A') (A") (A') (A") (A') (A') (A')
                 (A') (A") (A") (A') (A') (A") (A') (A') (A") (A')
                 (A') (A") (A') (A') (A') (A") (A") (A') (A') (A")
                 (A") (A') (A") (A') (A') (A') (A') (A") (A') (A')
                 (A") (A') (A') (A') (A") (A') (A") (A') (A") (A")
                 (A") (A') (A') (A') (A') (A') (A')
 The electronic state of the initial guess is 1-A'.
 Leave Link  401 at Wed Feb  8 13:55:42 2023, MaxMem=   754974720 cpu:               1.2 elap:               0.3
 (Enter /opt/cluster/programs/g16-c.01/g16/l502.exe)
 Keep R1 ints in memory in symmetry-blocked form, NReq=13818732.
 FoFCou: FMM=F IPFlag=           0 FMFlag=           0 FMFlg1=           0
         NFxFlg=           0 DoJE=F BraDBF=F KetDBF=F FulRan=T
         wScrn=  0.000000 ICntrl=       600 IOpCl=  0 I1Cent=           0 NGrid=           0
         NMat0=    1 NMatS0=   4278 NMatT0=    0 NMatD0=    1 NMtDS0=    0 NMtDT0=    0
 Petite list used in FoFCou.
 Closed shell SCF:
 Using DIIS extrapolation, IDIIS=  1040.
 NGot=   754974720 LenX=   750285684 LenY=   750274218
 Requested convergence on RMS density matrix=1.00D-08 within 200 cycles.
 Requested convergence on MAX density matrix=1.00D-06.
 Requested convergence on             energy=1.00D-06.
 No special actions if energy rises.

 Cycle   1  Pass 1  IDiag  1:
 E= -75.9596000800551    
 DIIS: error= 6.29D-02 at cycle   1 NSaved=   1.
 NSaved= 1 IEnMin= 1 EnMin= -75.9596000800551     IErMin= 1 ErrMin= 6.29D-02
 ErrMax= 6.29D-02  0.00D+00 EMaxC= 1.00D-01 BMatC= 2.10D-01 BMatP= 2.10D-01
 IDIUse=3 WtCom= 3.71D-01 WtEn= 6.29D-01
 Coeff-Com:  0.100D+01
 Coeff-En:   0.100D+01
 Coeff:      0.100D+01
 Gap=     0.449 Goal=   None    Shift=    0.000
 GapD=    0.449 DampG=2.000 DampE=0.500 DampFc=1.0000 IDamp=-1.
 RMSDP=2.21D-03 MaxDP=5.00D-02              OVMax= 1.26D-01

 Cycle   2  Pass 1  IDiag  1:
 E= -76.0141491097216     Delta-E=       -0.054549029666 Rises=F Damp=F
 DIIS: error= 4.12D-02 at cycle   2 NSaved=   2.
 NSaved= 2 IEnMin= 2 EnMin= -76.0141491097216     IErMin= 2 ErrMin= 4.12D-02
 ErrMax= 4.12D-02  0.00D+00 EMaxC= 1.00D-01 BMatC= 6.22D-02 BMatP= 2.10D-01
 IDIUse=3 WtCom= 5.88D-01 WtEn= 4.12D-01
 Coeff-Com:  0.326D+00 0.674D+00
 Coeff-En:   0.202D+00 0.798D+00
 Coeff:      0.275D+00 0.725D+00
 Gap=     0.565 Goal=   None    Shift=    0.000
 RMSDP=1.31D-03 MaxDP=3.18D-02 DE=-5.45D-02 OVMax= 6.67D-02

 Cycle   3  Pass 1  IDiag  1:
 E= -76.0507049973291     Delta-E=       -0.036555887607 Rises=F Damp=F
 DIIS: error= 8.79D-03 at cycle   3 NSaved=   3.
 NSaved= 3 IEnMin= 3 EnMin= -76.0507049973291     IErMin= 3 ErrMin= 8.79D-03
 ErrMax= 8.79D-03  0.00D+00 EMaxC= 1.00D-01 BMatC= 3.04D-03 BMatP= 6.22D-02
 IDIUse=3 WtCom= 9.12D-01 WtEn= 8.79D-02
 Coeff-Com: -0.306D-01 0.150D+00 0.881D+00
 Coeff-En:   0.000D+00 0.000D+00 0.100D+01
 Coeff:     -0.279D-01 0.137D+00 0.891D+00
 Gap=     0.534 Goal=   None    Shift=    0.000
 RMSDP=2.25D-04 MaxDP=4.39D-03 DE=-3.66D-02 OVMax= 1.26D-02

 Cycle   4  Pass 1  IDiag  1:
 E= -76.0525885190004     Delta-E=       -0.001883521671 Rises=F Damp=F
 DIIS: error= 6.74D-04 at cycle   4 NSaved=   4.
 NSaved= 4 IEnMin= 4 EnMin= -76.0525885190004     IErMin= 4 ErrMin= 6.74D-04
 ErrMax= 6.74D-04  0.00D+00 EMaxC= 1.00D-01 BMatC= 1.58D-05 BMatP= 3.04D-03
 IDIUse=3 WtCom= 9.93D-01 WtEn= 6.74D-03
 Coeff-Com:  0.627D-02-0.534D-01-0.225D+00 0.127D+01
 Coeff-En:   0.000D+00 0.000D+00 0.000D+00 0.100D+01
 Coeff:      0.623D-02-0.530D-01-0.224D+00 0.127D+01
 Gap=     0.536 Goal=   None    Shift=    0.000
 RMSDP=3.96D-05 MaxDP=7.30D-04 DE=-1.88D-03 OVMax= 2.56D-03

 Cycle   5  Pass 1  IDiag  1:
 E= -76.0526149586925     Delta-E=       -0.000026439692 Rises=F Damp=F
 DIIS: error= 1.90D-04 at cycle   5 NSaved=   5.
 NSaved= 5 IEnMin= 5 EnMin= -76.0526149586925     IErMin= 5 ErrMin= 1.90D-04
 ErrMax= 1.90D-04  0.00D+00 EMaxC= 1.00D-01 BMatC= 8.19D-07 BMatP= 1.58D-05
 IDIUse=3 WtCom= 9.98D-01 WtEn= 1.90D-03
 Coeff-Com:  0.660D-03 0.153D-03-0.548D-02-0.266D+00 0.127D+01
 Coeff-En:   0.000D+00 0.000D+00 0.000D+00 0.000D+00 0.100D+01
 Coeff:      0.658D-03 0.153D-03-0.547D-02-0.265D+00 0.127D+01
 Gap=     0.537 Goal=   None    Shift=    0.000
 RMSDP=1.32D-05 MaxDP=2.44D-04 DE=-2.64D-05 OVMax= 9.19D-04

 Cycle   6  Pass 1  IDiag  1:
 E= -76.0526171118636     Delta-E=       -0.000002153171 Rises=F Damp=F
 DIIS: error= 3.18D-05 at cycle   6 NSaved=   6.
 NSaved= 6 IEnMin= 6 EnMin= -76.0526171118636     IErMin= 6 ErrMin= 3.18D-05
 ErrMax= 3.18D-05  0.00D+00 EMaxC= 1.00D-01 BMatC= 2.58D-08 BMatP= 8.19D-07
 IDIUse=1 WtCom= 1.00D+00 WtEn= 0.00D+00
 Coeff-Com: -0.327D-03 0.176D-02 0.820D-02 0.545D-02-0.284D+00 0.127D+01
 Coeff:     -0.327D-03 0.176D-02 0.820D-02 0.545D-02-0.284D+00 0.127D+01
 Gap=     0.537 Goal=   None    Shift=    0.000
 RMSDP=2.83D-06 MaxDP=5.98D-05 DE=-2.15D-06 OVMax= 2.10D-04

 Cycle   7  Pass 1  IDiag  1:
 E= -76.0526171964686     Delta-E=       -0.000000084605 Rises=F Damp=F
 DIIS: error= 5.96D-06 at cycle   7 NSaved=   7.
 NSaved= 7 IEnMin= 7 EnMin= -76.0526171964686     IErMin= 7 ErrMin= 5.96D-06
 ErrMax= 5.96D-06  0.00D+00 EMaxC= 1.00D-01 BMatC= 1.52D-09 BMatP= 2.58D-08
 IDIUse=1 WtCom= 1.00D+00 WtEn= 0.00D+00
 Coeff-Com:  0.250D-04-0.379D-03-0.158D-02 0.183D-01-0.300D-01-0.200D+00
 Coeff-Com:  0.121D+01
 Coeff:      0.250D-04-0.379D-03-0.158D-02 0.183D-01-0.300D-01-0.200D+00
 Coeff:      0.121D+01
 Gap=     0.537 Goal=   None    Shift=    0.000
 RMSDP=4.66D-07 MaxDP=1.12D-05 DE=-8.46D-08 OVMax= 4.22D-05

 Cycle   8  Pass 1  IDiag  1:
 E= -76.0526172001092     Delta-E=       -0.000000003641 Rises=F Damp=F
 DIIS: error= 1.70D-06 at cycle   8 NSaved=   8.
 NSaved= 8 IEnMin= 8 EnMin= -76.0526172001092     IErMin= 8 ErrMin= 1.70D-06
 ErrMax= 1.70D-06  0.00D+00 EMaxC= 1.00D-01 BMatC= 8.29D-11 BMatP= 1.52D-09
 IDIUse=1 WtCom= 1.00D+00 WtEn= 0.00D+00
 Coeff-Com:  0.113D-04 0.244D-05 0.359D-04-0.555D-02 0.234D-01-0.486D-02
 Coeff-Com: -0.386D+00 0.137D+01
 Coeff:      0.113D-04 0.244D-05 0.359D-04-0.555D-02 0.234D-01-0.486D-02
 Coeff:     -0.386D+00 0.137D+01
 Gap=     0.537 Goal=   None    Shift=    0.000
 RMSDP=1.39D-07 MaxDP=3.05D-06 DE=-3.64D-09 OVMax= 9.49D-06

 Cycle   9  Pass 1  IDiag  1:
 E= -76.0526172003183     Delta-E=       -0.000000000209 Rises=F Damp=F
 DIIS: error= 2.02D-07 at cycle   9 NSaved=   9.
 NSaved= 9 IEnMin= 9 EnMin= -76.0526172003183     IErMin= 9 ErrMin= 2.02D-07
 ErrMax= 2.02D-07  0.00D+00 EMaxC= 1.00D-01 BMatC= 9.67D-13 BMatP= 8.29D-11
 IDIUse=1 WtCom= 1.00D+00 WtEn= 0.00D+00
 Coeff-Com: -0.156D-05 0.775D-05 0.275D-04 0.112D-03-0.144D-02 0.398D-02
 Coeff-Com:  0.170D-01-0.154D+00 0.113D+01
 Coeff:     -0.156D-05 0.775D-05 0.275D-04 0.112D-03-0.144D-02 0.398D-02
 Coeff:      0.170D-01-0.154D+00 0.113D+01
 Gap=     0.537 Goal=   None    Shift=    0.000
 RMSDP=1.77D-08 MaxDP=3.63D-07 DE=-2.09D-10 OVMax= 7.75D-07

 Cycle  10  Pass 1  IDiag  1:
 E= -76.0526172003203     Delta-E=       -0.000000000002 Rises=F Damp=F
 DIIS: error= 3.88D-08 at cycle  10 NSaved=  10.
 NSaved=10 IEnMin=10 EnMin= -76.0526172003203     IErMin=10 ErrMin= 3.88D-08
 ErrMax= 3.88D-08  0.00D+00 EMaxC= 1.00D-01 BMatC= 4.66D-14 BMatP= 9.67D-13
 IDIUse=1 WtCom= 1.00D+00 WtEn= 0.00D+00
 Coeff-Com: -0.162D-06-0.106D-05-0.478D-05 0.159D-03-0.484D-03-0.475D-03
 Coeff-Com:  0.112D-01-0.287D-01-0.150D+00 0.117D+01
 Coeff:     -0.162D-06-0.106D-05-0.478D-05 0.159D-03-0.484D-03-0.475D-03
 Coeff:      0.112D-01-0.287D-01-0.150D+00 0.117D+01
 Gap=     0.537 Goal=   None    Shift=    0.000
 RMSDP=3.95D-09 MaxDP=7.39D-08 DE=-1.99D-12 OVMax= 1.48D-07

 SCF Done:  E(RHF) =  -76.0526172003     A.U. after   10 cycles
            NFock= 10  Conv=0.39D-08     -V/T= 2.0014
 KE= 7.594776204424D+01 PE=-1.989783210283D+02 EE= 3.780068687428D+01
 Leave Link  502 at Wed Feb  8 13:55:43 2023, MaxMem=   754974720 cpu:               2.9 elap:               0.8
 (Enter /opt/cluster/programs/g16-c.01/g16/l801.exe)
 Windowed orbitals will be sorted by symmetry type.
 ExpMin= 2.53D-02 ExpMax= 1.53D+04 ExpMxC= 5.22D+02 IAcc=3 IRadAn=         5 AccDes= 0.00D+00
 HarFok:  IExCor=  205 AccDes= 0.00D+00 IRadAn=         5 IDoV=-2 UseB2=F ITyADJ=14
 ICtDFT= 12500011 ScaDFX=  1.000000  1.000000  1.000000  1.000000
 Largest valence mixing into a core orbital is  1.10D-04
 Largest core mixing into a valence orbital is  1.71D-05
 Range of M.O.s used for correlation:     2    92
 NBasis=    92 NAE=     5 NBE=     5 NFC=     1 NFV=     0
 NROrb=     91 NOA=     4 NOB=     4 NVA=    87 NVB=    87

 **** Warning!!: The largest alpha MO coefficient is  0.15314365D+02

 Leave Link  801 at Wed Feb  8 13:55:43 2023, MaxMem=   754974720 cpu:               0.4 elap:               0.1
 (Enter /opt/cluster/programs/g16-c.01/g16/l804.exe)
 Closed-shell transformation, MDV=   754974720 ITran=4 ISComp=2.
 Unit  1 TFree=        277501 TCopy=        343607.
 Semi-Direct transformation.
 ModeAB=           2 MOrb=             4 LenV=     754586778
 LASXX=       736380 LTotXX=      736380 LenRXX=      736380
 LTotAB=      763744 MaxLAS=     2025660 LenRXY=     2025660
 NonZer=     2107560 LenScr=     3929600 LnRSAI=           0
 LnScr1=           0 LExtra=           0 Total=      6691640
 MaxDsk=          -1 SrtSym=           F ITran=            4
 DoSDTr:  NPSUse=  4
 JobTyp=0 Pass  1:  I=   1 to   4.
 (rs|ai) integrals will be sorted in core.
 Complete sort for first half transformation.
 First half transformation complete.
 Complete sort for second half transformation.
 Second half transformation complete.
 Spin components of T(2) and E(2):
     alpha-alpha T2 =       0.8097362043D-02 E2=     -0.3253081964D-01
     alpha-beta  T2 =       0.4707274038D-01 E2=     -0.2028760944D+00
     beta-beta   T2 =       0.8097362043D-02 E2=     -0.3253081964D-01
 ANorm=    0.1031148614D+01
 E2 =    -0.2679377337D+00 EUMP2 =    -0.76320554933988D+02
 Leave Link  804 at Wed Feb  8 13:55:44 2023, MaxMem=   754974720 cpu:               3.0 elap:               0.8
 (Enter /opt/cluster/programs/g16-c.01/g16/l913.exe)
 CIDS:  MDV=   754974720.
 Frozen-core window:  NFC=   1 NFV=   0.
 IFCWin=0 IBDFC=1 NFBD=     0     0 NFCmp=     0     0 NFFFC=     0     0
 Using DD3R+UMP44R for 1st iteration.
 Using DD4RQ for 2nd and later iterations.
 Keep R2 and R3 ints in memory in symmetry-blocked form, NReq=13979827.
 FoFCou: FMM=F IPFlag=           0 FMFlag=           0 FMFlg1=           0
         NFxFlg=           0 DoJE=F BraDBF=F KetDBF=F FulRan=T
         wScrn=  0.000000 ICntrl=       600 IOpCl=  0 I1Cent=           0 NGrid=           0
         NMat0=    1 NMatS0=   4278 NMatT0=    0 NMatD0=    1 NMtDS0=    0 NMtDT0=    0
 Petite list used in FoFCou.
 CIDS: In Core Option IDoMem=           1.
 CCSD(T)
 =======
 Iterations=  50 Convergence= 0.100D-06
 Produce multiple copies of IABC intergrals
 Iteration Nr.   1
 **********************
 DD1Dir will call FoFMem   1 times, MxPair=        20
 NAB=    10 NAA=     0 NBB=     0.
 MP4(R+Q)=  0.40365720D-02
 Maximum subspace dimension=  5
 A-vector RMS=  2.8430762D-03 Max=  1.2192954D-02 conv= 1.00D-05.
 RLE energy=       -0.2666159436
 E3=       -0.27494496D-02        EUMP3=      -0.76323304384D+02
 E4(DQ)=   -0.61278684D-03        UMP4(DQ)=   -0.76323917170D+02
 E4(SDQ)=  -0.24691418D-02        UMP4(SDQ)=  -0.76325773525D+02
 VARIATIONAL ENERGIES WITH THE FIRST-ORDER WAVEFUNCTION:
 DE(Corr)= -0.26660940     E(Corr)=     -76.319226597    
 NORM(A)=   0.10310000D+01
 Iteration Nr.   2
 **********************
 DD1Dir will call FoFMem   1 times, MxPair=        20
 NAB=    10 NAA=     0 NBB=     0.
 A-vector RMS=  3.0714840D-04 Max=  2.1891665D-03 conv= 1.00D-05.
 RLE energy=       -0.2723348654
 DE(Corr)= -0.27194845     E(CORR)=     -76.324565652     Delta=-5.34D-03
 NORM(A)=   0.10330995D+01
 Iteration Nr.   3
 **********************
 DD1Dir will call FoFMem   1 times, MxPair=        20
 NAB=    10 NAA=     0 NBB=     0.
 A-vector RMS=  3.9990735D-04 Max=  2.2562493D-03 conv= 1.00D-05.
 RLE energy=       -0.2726426652
 DE(Corr)= -0.27227340     E(CORR)=     -76.324890601     Delta=-3.25D-04
 NORM(A)=   0.10335100D+01
 Iteration Nr.   4
 **********************
 DD1Dir will call FoFMem   1 times, MxPair=        20
 NAB=    10 NAA=     0 NBB=     0.
 A-vector RMS=  6.0987856D-05 Max=  3.8168204D-04 conv= 1.00D-05.
 RLE energy=       -0.2726748378
 DE(Corr)= -0.27264727     E(CORR)=     -76.325264475     Delta=-3.74D-04
 NORM(A)=   0.10336207D+01
 Iteration Nr.   5
 **********************
 DD1Dir will call FoFMem   1 times, MxPair=        20
 NAB=    10 NAA=     0 NBB=     0.
 A-vector RMS=  3.0395092D-05 Max=  1.9122849D-04 conv= 1.00D-05.
 RLE energy=       -0.2726866812
 DE(Corr)= -0.27268145     E(CORR)=     -76.325298647     Delta=-3.42D-05
 NORM(A)=   0.10336431D+01
 Iteration Nr.   6
 **********************
 DD1Dir will call FoFMem   1 times, MxPair=        20
 NAB=    10 NAA=     0 NBB=     0.
 A-vector RMS=  7.1532243D-06 Max=  3.8899376D-05 conv= 1.00D-05.
 RLE energy=       -0.2726831724
 DE(Corr)= -0.27268409     E(CORR)=     -76.325301295     Delta=-2.65D-06
 NORM(A)=   0.10336451D+01
 Iteration Nr.   7
 **********************
 DD1Dir will call FoFMem   1 times, MxPair=        20
 NAB=    10 NAA=     0 NBB=     0.
 A-vector RMS=  2.7749213D-06 Max=  1.4500693D-05 conv= 1.00D-05.
 RLE energy=       -0.2726831588
 DE(Corr)= -0.27268409     E(CORR)=     -76.325301294     Delta= 1.13D-09
 NORM(A)=   0.10336457D+01
 Iteration Nr.   8
 **********************
 DD1Dir will call FoFMem   1 times, MxPair=        20
 NAB=    10 NAA=     0 NBB=     0.
 A-vector RMS=  1.0473603D-06 Max=  4.7573620D-06 conv= 1.00D-05.
 RLE energy=       -0.2726837287
 DE(Corr)= -0.27268385     E(CORR)=     -76.325301046     Delta= 2.48D-07
 NORM(A)=   0.10336461D+01
 Iteration Nr.   9
 **********************
 DD1Dir will call FoFMem   1 times, MxPair=        20
 NAB=    10 NAA=     0 NBB=     0.
 A-vector RMS=  3.2821839D-07 Max=  1.8448746D-06 conv= 1.00D-05.
 RLE energy=       -0.2726838433
 DE(Corr)= -0.27268386     E(CORR)=     -76.325301060     Delta=-1.48D-08
 NORM(A)=   0.10336462D+01
 CI/CC converged in    9 iterations to DelEn=-1.48D-08 Conv= 1.00D-07 ErrA1= 3.28D-07 Conv= 1.00D-05
 Wavefunction amplitudes converged. E(Corr)=     -76.325301060    
 Largest amplitude= 1.98D-02
 IPart=  4 IA=    6   11.23% done.
 IPart=  3 IA=   11   21.79% done.
 IPart=  4 IA=   16   31.68% done.
 IPart=  2 IA=   21   40.90% done.
 IPart=  2 IA=   27   51.08% done.
 IPart=  1 IA=   33   60.30% done.
 IPart=  2 IA=   41   71.10% done.
 IPart=  1 IA=   49   80.19% done.
 IPart=  4 IA=   61   90.62% done.
 Time for triples=        7.93 seconds.
 T4(CCSD)= -0.89248772D-02
 T5(CCSD)=  0.31833811D-03
 CCSD(T)= -0.76333907599D+02
 Discarding MO integrals.
 Leave Link  913 at Wed Feb  8 13:55:52 2023, MaxMem=   754974720 cpu:              24.1 elap:               7.6
 (Enter /opt/cluster/programs/g16-c.01/g16/l601.exe)
 Copying SCF densities to generalized density rwf, IOpCl= 0 IROHF=0.

 **********************************************************************

            Population analysis using the SCF Density.

 **********************************************************************

 Orbital symmetries:
       Occupied  (A') (A') (A') (A') (A")
       Virtual   (A') (A') (A') (A") (A') (A') (A') (A') (A") (A")
                 (A') (A') (A') (A') (A') (A') (A') (A") (A") (A')
                 (A") (A') (A') (A") (A') (A") (A') (A') (A') (A")
                 (A') (A") (A') (A') (A") (A') (A") (A') (A') (A')
                 (A') (A") (A') (A") (A") (A') (A') (A') (A") (A')
                 (A') (A") (A') (A') (A') (A") (A") (A') (A') (A")
                 (A") (A") (A') (A') (A') (A') (A') (A") (A') (A')
                 (A") (A') (A') (A') (A") (A') (A") (A") (A') (A")
                 (A") (A') (A') (A') (A') (A') (A')
 The electronic state is 1-A'.
 Alpha  occ. eigenvalues --  -20.56125  -1.34699  -0.73849  -0.56118  -0.50669
 Alpha virt. eigenvalues --    0.02994   0.04701   0.13719   0.15636   0.17058
 Alpha virt. eigenvalues --    0.18079   0.23067   0.24329   0.26107   0.31382
 Alpha virt. eigenvalues --    0.31975   0.36412   0.43075   0.47013   0.60785
 Alpha virt. eigenvalues --    0.64672   0.71432   0.71453   0.72701   0.82232
 Alpha virt. eigenvalues --    0.84352   0.88809   0.90911   0.91456   0.92661
 Alpha virt. eigenvalues --    0.93531   0.99049   1.01390   1.06147   1.08733
 Alpha virt. eigenvalues --    1.12908   1.16275   1.16420   1.27470   1.52198
 Alpha virt. eigenvalues --    1.60379   1.61956   1.70218   1.78994   1.99141
 Alpha virt. eigenvalues --    2.15058   2.24885   2.30394   2.32731   2.38511
 Alpha virt. eigenvalues --    2.38558   2.41532   2.49736   2.72162   2.72218
 Alpha virt. eigenvalues --    2.77683   2.86384   2.94586   3.59358   3.80381
 Alpha virt. eigenvalues --    4.00082   4.10298   4.16507   4.26654   4.37584
 Alpha virt. eigenvalues --    4.38720   4.40260   4.42897   4.52638   4.64175
 Alpha virt. eigenvalues --    4.71507   5.05146   5.14874   5.36436   5.44553
 Alpha virt. eigenvalues --    5.53896   5.81711   6.03276   6.57654   6.69537
 Alpha virt. eigenvalues --    6.77308   7.11947   7.18329   7.22642   7.33046
 Alpha virt. eigenvalues --    7.44223   7.52081   7.65258   7.79754   8.07682
 Alpha virt. eigenvalues --    8.69451  16.11457
          Condensed to atoms (all electrons):
               1          2          3
     1  O    7.877404   0.277095   0.279713
     2  H    0.277095   0.445221   0.015069
     3  H    0.279713   0.015069   0.533621
 Mulliken charges:
               1
     1  O   -0.434212
     2  H    0.262615
     3  H    0.171597
 Sum of Mulliken charges =   0.00000
 Mulliken charges with hydrogens summed into heavy atoms:
               1
     1  O    0.000000
 Electronic spatial extent (au):  <R**2>=             19.5247
 Charge=              0.0000 electrons
 Dipole moment (field-independent basis, Debye):
    X=             -0.0270    Y=             -1.7795    Z=             -0.0000  Tot=              1.7797
 Quadrupole moment (field-independent basis, Debye-Ang):
   XX=             -3.7570   YY=             -6.5558   ZZ=             -7.5832
   XY=             -0.3727   XZ=             -0.0000   YZ=              0.0000
 Traceless Quadrupole moment (field-independent basis, Debye-Ang):
   XX=              2.2084   YY=             -0.5905   ZZ=             -1.6179
   XY=             -0.3727   XZ=             -0.0000   YZ=              0.0000
 Octapole moment (field-independent basis, Debye-Ang**2):
  XXX=             -0.1093  YYY=             -0.9484  ZZZ=             -0.0000  XYY=              0.2240
  XXY=             -1.3928  XXZ=             -0.0000  XZZ=             -0.0506  YZZ=             -0.2225
  YYZ=             -0.0000  XYZ=              0.0000
 Hexadecapole moment (field-independent basis, Debye-Ang**3):
 XXXX=             -5.5286 YYYY=             -7.2578 ZZZZ=             -6.8054 XXXY=             -0.0872
 XXXZ=              0.0000 YYYX=              0.0047 YYYZ=             -0.0000 ZZZX=              0.0000
 ZZZY=             -0.0000 XXYY=             -1.9551 XXZZ=             -2.5017 YYZZ=             -2.3787
 XXYZ=              0.0000 YYXZ=              0.0000 ZZXY=              0.0734
 N-N= 9.177254909493D+00 E-N=-1.989783206782D+02  KE= 7.594776204424D+01
 Symmetry A'   KE= 7.149388721323D+01
 Symmetry A"   KE= 4.453874831007D+00
 Leave Link  601 at Wed Feb  8 13:55:52 2023, MaxMem=   754974720 cpu:               0.3 elap:               0.1
 (Enter /opt/cluster/programs/g16-c.01/g16/l9999.exe)
 Unable to Open any file for archive entry.
 1\1\GINC-NODE61\SP\RCCSD(T)-FC\Aug-CC-pVTZ\H2O1\BOITTIER\08-Feb-2023\0
 \\#P CCSD(T)/aug-cc-pVTZ scf(maxcycle=200)\\Gaussian input\\0,1\O,0,0.
 ,0.11751,0.\H,0,0.7973622306,-0.5007896629,0.\H,0,-0.8186734932,-0.277
 5276078,0.\\Version=ES64L-G16RevC.01\State=1-A'\HF=-76.0526172\MP2=-76
 .3205549\MP3=-76.3233044\MP4D=-76.3279537\MP4DQ=-76.3239172\MP4SDQ=-76
 .3257735\CCSD=-76.3253011\CCSD(T)=-76.3339076\RMSD=3.946e-09\PG=CS [SG
 (H2O1)]\\@
 The archive entry for this job was punched.


 SUCCESS-- IF YOU HAVE TRIED TO DO SOMETHING AND FAILED
           YOU ARE BETTER OFF THAN IF YOU HAD TRIED TO DO
           NOTHING AND SUCCEEDED.

                   -- FROM THE BACK OF A SUGAR PACKET
 Job cpu time:       0 days  0 hours  0 minutes 35.2 seconds.
 Elapsed time:       0 days  0 hours  0 minutes 10.7 seconds.
 File lengths (MBytes):  RWF=     75 Int=      0 D2E=      0 Chk=      2 Scr=      1
 Normal termination of Gaussian 16 at Wed Feb  8 13:55:52 2023.
