 Entering Gaussian System, Link 0=/opt/cluster/programs/g16-c.01/g16/g16
 Input=/scratch/boittier/jobs/tmp.7262260/gaussian_109_water_ccsdt_adz.com
 Output=/scratch/boittier/jobs/tmp.7262260/gaussian_109_water_ccsdt_adz.out
 Initial command:
 /opt/cluster/programs/g16-c.01/g16/l1.exe "/scratch/boittier/jobs/tmp.7262260/Gau-54029.inp" -scrdir="/scratch/boittier/jobs/tmp.7262260/"
 Entering Link 1 = /opt/cluster/programs/g16-c.01/g16/l1.exe PID=     54030.
  
 Copyright (c) 1988-2019, Gaussian, Inc.  All Rights Reserved.
  
 This is part of the Gaussian(R) 16 program.  It is based on
 the Gaussian(R) 09 system (copyright 2009, Gaussian, Inc.),
 the Gaussian(R) 03 system (copyright 2003, Gaussian, Inc.),
 the Gaussian(R) 98 system (copyright 1998, Gaussian, Inc.),
 the Gaussian(R) 94 system (copyright 1995, Gaussian, Inc.),
 the Gaussian 92(TM) system (copyright 1992, Gaussian, Inc.),
 the Gaussian 90(TM) system (copyright 1990, Gaussian, Inc.),
 the Gaussian 88(TM) system (copyright 1988, Gaussian, Inc.),
 the Gaussian 86(TM) system (copyright 1986, Carnegie Mellon
 University), and the Gaussian 82(TM) system (copyright 1983,
 Carnegie Mellon University). Gaussian is a federally registered
 trademark of Gaussian, Inc.
  
 This software contains proprietary and confidential information,
 including trade secrets, belonging to Gaussian, Inc.
  
 This software is provided under written license and may be
 used, copied, transmitted, or stored only in accord with that
 written license.
  
 The following legend is applicable only to US Government
 contracts under FAR:
  
                    RESTRICTED RIGHTS LEGEND
  
 Use, reproduction and disclosure by the US Government is
 subject to restrictions as set forth in subparagraphs (a)
 and (c) of the Commercial Computer Software - Restricted
 Rights clause in FAR 52.227-19.
  
 Gaussian, Inc.
 340 Quinnipiac St., Bldg. 40, Wallingford CT 06492
  
  
 ---------------------------------------------------------------
 Warning -- This program may not be used in any manner that
 competes with the business of Gaussian, Inc. or will provide
 assistance to any competitor of Gaussian, Inc.  The licensee
 of this program is prohibited from giving any competitor of
 Gaussian, Inc. access to this program.  By using this program,
 the user acknowledges that Gaussian, Inc. is engaged in the
 business of creating and licensing software in the field of
 computational chemistry and represents and warrants to the
 licensee that it is not a competitor of Gaussian, Inc. and that
 it will not use this program in any manner prohibited above.
 ---------------------------------------------------------------
  

 Cite this work as:
 Gaussian 16, Revision C.01,
 M. J. Frisch, G. W. Trucks, H. B. Schlegel, G. E. Scuseria, 
 M. A. Robb, J. R. Cheeseman, G. Scalmani, V. Barone, 
 G. A. Petersson, H. Nakatsuji, X. Li, M. Caricato, A. V. Marenich, 
 J. Bloino, B. G. Janesko, R. Gomperts, B. Mennucci, H. P. Hratchian, 
 J. V. Ortiz, A. F. Izmaylov, J. L. Sonnenberg, D. Williams-Young, 
 F. Ding, F. Lipparini, F. Egidi, J. Goings, B. Peng, A. Petrone, 
 T. Henderson, D. Ranasinghe, V. G. Zakrzewski, J. Gao, N. Rega, 
 G. Zheng, W. Liang, M. Hada, M. Ehara, K. Toyota, R. Fukuda, 
 J. Hasegawa, M. Ishida, T. Nakajima, Y. Honda, O. Kitao, H. Nakai, 
 T. Vreven, K. Throssell, J. A. Montgomery, Jr., J. E. Peralta, 
 F. Ogliaro, M. J. Bearpark, J. J. Heyd, E. N. Brothers, K. N. Kudin, 
 V. N. Staroverov, T. A. Keith, R. Kobayashi, J. Normand, 
 K. Raghavachari, A. P. Rendell, J. C. Burant, S. S. Iyengar, 
 J. Tomasi, M. Cossi, J. M. Millam, M. Klene, C. Adamo, R. Cammi, 
 J. W. Ochterski, R. L. Martin, K. Morokuma, O. Farkas, 
 J. B. Foresman, and D. J. Fox, Gaussian, Inc., Wallingford CT, 2019.
 
 ******************************************
 Gaussian 16:  ES64L-G16RevC.01  3-Jul-2019
                 8-Feb-2023 
 ******************************************
 %nproc=4
 Will use up to    4 processors via shared memory.
 %mem=5760MB
 %chk=gaussian_109_water_ccsdt_adz.chk
 ----------------------------------------
 #P CCSD(T)/aug-cc-pVDZ scf(maxcycle=200)
 ----------------------------------------
 1/38=1,172=1/1;
 2/12=2,17=6,18=5,40=1/2;
 3/5=16,7=10,11=9,25=1,30=1/1,2,3;
 4//1;
 5/5=2,7=200,38=5/2;
 8/6=4,9=120000,10=1/1,4;
 9/5=7,14=2/13;
 6/7=2,8=2,9=2,10=2/1;
 99/5=1,9=1/99;
 Leave Link    1 at Wed Feb  8 14:49:46 2023, MaxMem=   754974720 cpu:               0.1 elap:               0.0
 (Enter /opt/cluster/programs/g16-c.01/g16/l101.exe)
 --------------
 Gaussian input
 --------------
 Symbolic Z-matrix:
 Charge =  0 Multiplicity = 1
 O                     0.        0.11751   0. 
 H                     0.75785  -0.47015   0. 
 H                    -0.77566  -0.5278    0. 
 
 ITRead=  0  0  0
 MicOpt= -1 -1 -1
 NAtoms=      3 NQM=        3 NQMF=       0 NMMI=      0 NMMIF=      0
                NMic=       0 NMicF=      0.
                    Isotopes and Nuclear Properties:
 (Nuclear quadrupole moments (NQMom) in fm**2, nuclear magnetic moments (NMagM)
  in nuclear magnetons)

  Atom         1           2           3
 IAtWgt=          16           1           1
 AtmWgt=  15.9949146   1.0078250   1.0078250
 NucSpn=           0           1           1
 AtZEff=  -0.0000000  -0.0000000  -0.0000000
 NQMom=    0.0000000   0.0000000   0.0000000
 NMagM=    0.0000000   2.7928460   2.7928460
 AtZNuc=   8.0000000   1.0000000   1.0000000
 Leave Link  101 at Wed Feb  8 14:49:47 2023, MaxMem=   754974720 cpu:               0.6 elap:               0.2
 (Enter /opt/cluster/programs/g16-c.01/g16/l202.exe)
                          Input orientation:                          
 ---------------------------------------------------------------------
 Center     Atomic      Atomic             Coordinates (Angstroms)
 Number     Number       Type             X           Y           Z
 ---------------------------------------------------------------------
      1          8           0        0.000000    0.117510    0.000000
      2          1           0        0.757850   -0.470150    0.000000
      3          1           0       -0.775661   -0.527804    0.000000
 ---------------------------------------------------------------------
                    Distance matrix (angstroms):
                    1          2          3
     1  O    0.000000
     2  H    0.959000   0.000000
     3  H    1.009000   1.534595   0.000000
 Stoichiometry    H2O
 Framework group  CS[SG(H2O)]
 Deg. of freedom     3
 Full point group                 CS      NOp   2
 Largest Abelian subgroup         CS      NOp   2
 Largest concise Abelian subgroup C1      NOp   1
                         Standard orientation:                         
 ---------------------------------------------------------------------
 Center     Atomic      Atomic             Coordinates (Angstroms)
 Number     Number       Type             X           Y           Z
 ---------------------------------------------------------------------
      1          8           0        0.000000    0.123310    0.000000
      2          1           0        0.766259   -0.453342    0.000000
      3          1           0       -0.766259   -0.533141    0.000000
 ---------------------------------------------------------------------
 Rotational constants (GHZ):         747.3894379         424.3383590         270.6652590
 Leave Link  202 at Wed Feb  8 14:49:47 2023, MaxMem=   754974720 cpu:               0.0 elap:               0.0
 (Enter /opt/cluster/programs/g16-c.01/g16/l301.exe)
 Standard basis: Aug-CC-pVDZ (5D, 7F)
 Ernie: Thresh=  0.10000D-02 Tol=  0.10000D-05 Strict=F.
 Ernie:  2 primitive shells out of 39 were deleted.
 There are    32 symmetry adapted cartesian basis functions of A'  symmetry.
 There are    11 symmetry adapted cartesian basis functions of A"  symmetry.
 There are    30 symmetry adapted basis functions of A'  symmetry.
 There are    11 symmetry adapted basis functions of A"  symmetry.
    41 basis functions,    65 primitive gaussians,    43 cartesian basis functions
     5 alpha electrons        5 beta electrons
       nuclear repulsion energy         8.9548971488 Hartrees.
 IExCor=    0 DFT=F Ex=HF Corr=None ExCW=0 ScaHFX=  1.000000
 ScaDFX=  1.000000  1.000000  1.000000  1.000000 ScalE2=  1.000000  1.000000
 IRadAn=      5 IRanWt=     -1 IRanGd=            0 ICorTp=0 IEmpDi=  4
 NAtoms=    3 NActive=    3 NUniq=    3 SFac= 1.00D+00 NAtFMM=   60 NAOKFM=F Big=F
 Integral buffers will be    131072 words long.
 Raffenetti 1 integral format.
 Two-electron integral symmetry is turned on.
 Leave Link  301 at Wed Feb  8 14:49:47 2023, MaxMem=   754974720 cpu:               0.1 elap:               0.0
 (Enter /opt/cluster/programs/g16-c.01/g16/l302.exe)
 NPDir=0 NMtPBC=     1 NCelOv=     1 NCel=       1 NClECP=     1 NCelD=      1
         NCelK=      1 NCelE2=     1 NClLst=     1 CellRange=     0.0.
 One-electron integrals computed using PRISM.
 One-electron integral symmetry used in STVInt
 NBasis=    41 RedAO= T EigKep=  2.81D-03  NBF=    30    11
 NBsUse=    41 1.00D-06 EigRej= -1.00D+00 NBFU=    30    11
 Leave Link  302 at Wed Feb  8 14:49:47 2023, MaxMem=   754974720 cpu:               0.5 elap:               0.2
 (Enter /opt/cluster/programs/g16-c.01/g16/l303.exe)
 DipDrv:  MaxL=1.
 Leave Link  303 at Wed Feb  8 14:49:47 2023, MaxMem=   754974720 cpu:               0.1 elap:               0.0
 (Enter /opt/cluster/programs/g16-c.01/g16/l401.exe)
 ExpMin= 2.97D-02 ExpMax= 1.17D+04 ExpMxC= 4.01D+02 IAcc=3 IRadAn=         5 AccDes= 0.00D+00
 Harris functional with IExCor=  205 and IRadAn=       5 diagonalized for initial guess.
 HarFok:  IExCor=  205 AccDes= 0.00D+00 IRadAn=         5 IDoV= 1 UseB2=F ITyADJ=14
 ICtDFT=  3500011 ScaDFX=  1.000000  1.000000  1.000000  1.000000
 FoFCou: FMM=F IPFlag=           0 FMFlag=      100000 FMFlg1=           0
         NFxFlg=           0 DoJE=T BraDBF=F KetDBF=T FulRan=T
         wScrn=  0.000000 ICntrl=       500 IOpCl=  0 I1Cent=   200000004 NGrid=           0
         NMat0=    1 NMatS0=      1 NMatT0=    0 NMatD0=    1 NMtDS0=    0 NMtDT0=    0
 Petite list used in FoFCou.
 Harris En= -76.1217954991854    
 JPrj=0 DoOrth=F DoCkMO=F.
 Initial guess orbital symmetries:
       Occupied  (A') (A') (A') (A') (A")
       Virtual   (A') (A') (A') (A") (A') (A') (A') (A') (A") (A')
                 (A") (A') (A') (A') (A') (A') (A") (A') (A") (A')
                 (A") (A') (A') (A') (A") (A") (A') (A') (A') (A')
                 (A') (A") (A') (A") (A') (A')
 The electronic state of the initial guess is 1-A'.
 Leave Link  401 at Wed Feb  8 14:49:47 2023, MaxMem=   754974720 cpu:               0.7 elap:               0.2
 (Enter /opt/cluster/programs/g16-c.01/g16/l502.exe)
 Keep R1 ints in memory in symmetry-blocked form, NReq=1210668.
 FoFCou: FMM=F IPFlag=           0 FMFlag=           0 FMFlg1=           0
         NFxFlg=           0 DoJE=F BraDBF=F KetDBF=F FulRan=T
         wScrn=  0.000000 ICntrl=       600 IOpCl=  0 I1Cent=           0 NGrid=           0
         NMat0=    1 NMatS0=    861 NMatT0=    0 NMatD0=    1 NMtDS0=    0 NMtDT0=    0
 Petite list used in FoFCou.
 Closed shell SCF:
 Using DIIS extrapolation, IDIIS=  1040.
 NGot=   754974720 LenX=   754771907 LenY=   754769617
 Requested convergence on RMS density matrix=1.00D-08 within 200 cycles.
 Requested convergence on MAX density matrix=1.00D-06.
 Requested convergence on             energy=1.00D-06.
 No special actions if energy rises.

 Cycle   1  Pass 1  IDiag  1:
 E= -75.9634321855527    
 DIIS: error= 4.94D-02 at cycle   1 NSaved=   1.
 NSaved= 1 IEnMin= 1 EnMin= -75.9634321855527     IErMin= 1 ErrMin= 4.94D-02
 ErrMax= 4.94D-02  0.00D+00 EMaxC= 1.00D-01 BMatC= 1.12D-01 BMatP= 1.12D-01
 IDIUse=3 WtCom= 5.06D-01 WtEn= 4.94D-01
 Coeff-Com:  0.100D+01
 Coeff-En:   0.100D+01
 Coeff:      0.100D+01
 Gap=     0.460 Goal=   None    Shift=    0.000
 GapD=    0.460 DampG=2.000 DampE=0.500 DampFc=1.0000 IDamp=-1.
 RMSDP=6.16D-03 MaxDP=1.13D-01              OVMax= 1.21D-01

 Cycle   2  Pass 1  IDiag  1:
 E= -76.0049850311810     Delta-E=       -0.041552845628 Rises=F Damp=F
 DIIS: error= 4.04D-02 at cycle   2 NSaved=   2.
 NSaved= 2 IEnMin= 2 EnMin= -76.0049850311810     IErMin= 2 ErrMin= 4.04D-02
 ErrMax= 4.04D-02  0.00D+00 EMaxC= 1.00D-01 BMatC= 4.54D-02 BMatP= 1.12D-01
 IDIUse=3 WtCom= 5.96D-01 WtEn= 4.04D-01
 Coeff-Com:  0.378D+00 0.622D+00
 Coeff-En:   0.228D+00 0.772D+00
 Coeff:      0.317D+00 0.683D+00
 Gap=     0.559 Goal=   None    Shift=    0.000
 RMSDP=2.95D-03 MaxDP=5.42D-02 DE=-4.16D-02 OVMax= 5.89D-02

 Cycle   3  Pass 1  IDiag  1:
 E= -76.0365069893209     Delta-E=       -0.031521958140 Rises=F Damp=F
 DIIS: error= 4.41D-03 at cycle   3 NSaved=   3.
 NSaved= 3 IEnMin= 3 EnMin= -76.0365069893209     IErMin= 3 ErrMin= 4.41D-03
 ErrMax= 4.41D-03  0.00D+00 EMaxC= 1.00D-01 BMatC= 1.10D-03 BMatP= 4.54D-02
 IDIUse=3 WtCom= 9.56D-01 WtEn= 4.41D-02
 Coeff-Com: -0.386D-01 0.897D-01 0.949D+00
 Coeff-En:   0.000D+00 0.000D+00 0.100D+01
 Coeff:     -0.369D-01 0.858D-01 0.951D+00
 Gap=     0.541 Goal=   None    Shift=    0.000
 RMSDP=4.64D-04 MaxDP=8.23D-03 DE=-3.15D-02 OVMax= 9.51D-03

 Cycle   4  Pass 1  IDiag  1:
 E= -76.0373656281034     Delta-E=       -0.000858638783 Rises=F Damp=F
 DIIS: error= 7.13D-04 at cycle   4 NSaved=   4.
 NSaved= 4 IEnMin= 4 EnMin= -76.0373656281034     IErMin= 4 ErrMin= 7.13D-04
 ErrMax= 7.13D-04  0.00D+00 EMaxC= 1.00D-01 BMatC= 8.37D-06 BMatP= 1.10D-03
 IDIUse=3 WtCom= 9.93D-01 WtEn= 7.13D-03
 Coeff-Com:  0.920D-02-0.432D-01-0.338D+00 0.137D+01
 Coeff-En:   0.000D+00 0.000D+00 0.000D+00 0.100D+01
 Coeff:      0.914D-02-0.429D-01-0.336D+00 0.137D+01
 Gap=     0.542 Goal=   None    Shift=    0.000
 RMSDP=1.19D-04 MaxDP=1.33D-03 DE=-8.59D-04 OVMax= 2.28D-03

 Cycle   5  Pass 1  IDiag  1:
 E= -76.0373867304982     Delta-E=       -0.000021102395 Rises=F Damp=F
 DIIS: error= 1.94D-04 at cycle   5 NSaved=   5.
 NSaved= 5 IEnMin= 5 EnMin= -76.0373867304982     IErMin= 5 ErrMin= 1.94D-04
 ErrMax= 1.94D-04  0.00D+00 EMaxC= 1.00D-01 BMatC= 3.68D-07 BMatP= 8.37D-06
 IDIUse=3 WtCom= 9.98D-01 WtEn= 1.94D-03
 Coeff-Com: -0.798D-04 0.360D-02 0.251D-01-0.281D+00 0.125D+01
 Coeff-En:   0.000D+00 0.000D+00 0.000D+00 0.000D+00 0.100D+01
 Coeff:     -0.796D-04 0.359D-02 0.251D-01-0.281D+00 0.125D+01
 Gap=     0.543 Goal=   None    Shift=    0.000
 RMSDP=2.77D-05 MaxDP=4.31D-04 DE=-2.11D-05 OVMax= 5.90D-04

 Cycle   6  Pass 1  IDiag  1:
 E= -76.0373878487204     Delta-E=       -0.000001118222 Rises=F Damp=F
 DIIS: error= 3.72D-05 at cycle   6 NSaved=   6.
 NSaved= 6 IEnMin= 6 EnMin= -76.0373878487204     IErMin= 6 ErrMin= 3.72D-05
 ErrMax= 3.72D-05  0.00D+00 EMaxC= 1.00D-01 BMatC= 1.46D-08 BMatP= 3.68D-07
 IDIUse=1 WtCom= 1.00D+00 WtEn= 0.00D+00
 Coeff-Com: -0.393D-03 0.141D-02 0.114D-01-0.197D-01-0.230D+00 0.124D+01
 Coeff:     -0.393D-03 0.141D-02 0.114D-01-0.197D-01-0.230D+00 0.124D+01
 Gap=     0.543 Goal=   None    Shift=    0.000
 RMSDP=5.03D-06 MaxDP=1.03D-04 DE=-1.12D-06 OVMax= 1.36D-04

 Cycle   7  Pass 1  IDiag  1:
 E= -76.0373878940372     Delta-E=       -0.000000045317 Rises=F Damp=F
 DIIS: error= 6.56D-06 at cycle   7 NSaved=   7.
 NSaved= 7 IEnMin= 7 EnMin= -76.0373878940372     IErMin= 7 ErrMin= 6.56D-06
 ErrMax= 6.56D-06  0.00D+00 EMaxC= 1.00D-01 BMatC= 6.62D-10 BMatP= 1.46D-08
 IDIUse=1 WtCom= 1.00D+00 WtEn= 0.00D+00
 Coeff-Com:  0.141D-03-0.661D-03-0.544D-02 0.226D-01 0.130D-01-0.378D+00
 Coeff-Com:  0.135D+01
 Coeff:      0.141D-03-0.661D-03-0.544D-02 0.226D-01 0.130D-01-0.378D+00
 Coeff:      0.135D+01
 Gap=     0.543 Goal=   None    Shift=    0.000
 RMSDP=9.65D-07 MaxDP=1.77D-05 DE=-4.53D-08 OVMax= 2.68D-05

 Cycle   8  Pass 1  IDiag  1:
 E= -76.0373878957065     Delta-E=       -0.000000001669 Rises=F Damp=F
 DIIS: error= 7.38D-07 at cycle   8 NSaved=   8.
 NSaved= 8 IEnMin= 8 EnMin= -76.0373878957065     IErMin= 8 ErrMin= 7.38D-07
 ErrMax= 7.38D-07  0.00D+00 EMaxC= 1.00D-01 BMatC= 1.81D-11 BMatP= 6.62D-10
 IDIUse=1 WtCom= 1.00D+00 WtEn= 0.00D+00
 Coeff-Com: -0.250D-04 0.132D-03 0.115D-02-0.590D-02 0.435D-02 0.681D-01
 Coeff-Com: -0.399D+00 0.133D+01
 Coeff:     -0.250D-04 0.132D-03 0.115D-02-0.590D-02 0.435D-02 0.681D-01
 Coeff:     -0.399D+00 0.133D+01
 Gap=     0.543 Goal=   None    Shift=    0.000
 RMSDP=2.15D-07 MaxDP=2.83D-06 DE=-1.67D-09 OVMax= 4.14D-06

 Cycle   9  Pass 1  IDiag  1:
 E= -76.0373878957535     Delta-E=       -0.000000000047 Rises=F Damp=F
 DIIS: error= 9.59D-08 at cycle   9 NSaved=   9.
 NSaved= 9 IEnMin= 9 EnMin= -76.0373878957535     IErMin= 9 ErrMin= 9.59D-08
 ErrMax= 9.59D-08  0.00D+00 EMaxC= 1.00D-01 BMatC= 4.64D-13 BMatP= 1.81D-11
 IDIUse=1 WtCom= 1.00D+00 WtEn= 0.00D+00
 Coeff-Com: -0.169D-05 0.685D-05 0.415D-04-0.931D-05-0.876D-03 0.311D-02
 Coeff-Com:  0.118D-01-0.180D+00 0.117D+01
 Coeff:     -0.169D-05 0.685D-05 0.415D-04-0.931D-05-0.876D-03 0.311D-02
 Coeff:      0.118D-01-0.180D+00 0.117D+01
 Gap=     0.543 Goal=   None    Shift=    0.000
 RMSDP=3.24D-08 MaxDP=3.63D-07 DE=-4.70D-11 OVMax= 5.80D-07

 Cycle  10  Pass 1  IDiag  1:
 E= -76.0373878957546     Delta-E=       -0.000000000001 Rises=F Damp=F
 DIIS: error= 2.78D-08 at cycle  10 NSaved=  10.
 NSaved=10 IEnMin=10 EnMin= -76.0373878957546     IErMin=10 ErrMin= 2.78D-08
 ErrMax= 2.78D-08  0.00D+00 EMaxC= 1.00D-01 BMatC= 3.10D-14 BMatP= 4.64D-13
 IDIUse=1 WtCom= 1.00D+00 WtEn= 0.00D+00
 Coeff-Com:  0.162D-05-0.813D-05-0.662D-04 0.291D-03 0.521D-04-0.437D-02
 Coeff-Com:  0.189D-01-0.355D-01-0.268D+00 0.129D+01
 Coeff:      0.162D-05-0.813D-05-0.662D-04 0.291D-03 0.521D-04-0.437D-02
 Coeff:      0.189D-01-0.355D-01-0.268D+00 0.129D+01
 Gap=     0.543 Goal=   None    Shift=    0.000
 RMSDP=9.55D-09 MaxDP=9.85D-08 DE=-1.14D-12 OVMax= 2.10D-07

 SCF Done:  E(RHF) =  -76.0373878958     A.U. after   10 cycles
            NFock= 10  Conv=0.96D-08     -V/T= 2.0027
 KE= 7.583278878615D+01 PE=-1.983748672378D+02 EE= 3.754979340703D+01
 Leave Link  502 at Wed Feb  8 14:49:47 2023, MaxMem=   754974720 cpu:               0.7 elap:               0.2
 (Enter /opt/cluster/programs/g16-c.01/g16/l801.exe)
 Windowed orbitals will be sorted by symmetry type.
 ExpMin= 2.97D-02 ExpMax= 1.17D+04 ExpMxC= 4.01D+02 IAcc=3 IRadAn=         5 AccDes= 0.00D+00
 HarFok:  IExCor=  205 AccDes= 0.00D+00 IRadAn=         5 IDoV=-2 UseB2=F ITyADJ=14
 ICtDFT= 12500011 ScaDFX=  1.000000  1.000000  1.000000  1.000000
 Largest valence mixing into a core orbital is  6.24D-05
 Largest core mixing into a valence orbital is  1.81D-05
 Range of M.O.s used for correlation:     2    41
 NBasis=    41 NAE=     5 NBE=     5 NFC=     1 NFV=     0
 NROrb=     40 NOA=     4 NOB=     4 NVA=    36 NVB=    36
 Leave Link  801 at Wed Feb  8 14:49:48 2023, MaxMem=   754974720 cpu:               0.3 elap:               0.1
 (Enter /opt/cluster/programs/g16-c.01/g16/l804.exe)
 Closed-shell transformation, MDV=   754974720 ITran=4 ISComp=2.
 Unit  1 TFree=         57024 TCopy=        242858.
 Semi-Direct transformation.
 ModeAB=           2 MOrb=             4 LenV=     754769661
 LASXX=        60334 LTotXX=       60334 LenRXX=       60334
 LTotAB=       65632 MaxLAS=      151360 LenRXY=      151360
 NonZer=      159520 LenScr=      785920 LnRSAI=           0
 LnScr1=           0 LExtra=           0 Total=       997614
 MaxDsk=          -1 SrtSym=           F ITran=            4
 DoSDTr:  NPSUse=  4
 JobTyp=0 Pass  1:  I=   1 to   4.
 (rs|ai) integrals will be sorted in core.
 Complete sort for first half transformation.
 First half transformation complete.
 Complete sort for second half transformation.
 Second half transformation complete.
 Spin components of T(2) and E(2):
     alpha-alpha T2 =       0.7947589492D-02 E2=     -0.2819177850D-01
     alpha-beta  T2 =       0.4515992622D-01 E2=     -0.1654675648D+00
     beta-beta   T2 =       0.7947589492D-02 E2=     -0.2819177850D-01
 ANorm=    0.1030075291D+01
 E2 =    -0.2218511218D+00 EUMP2 =    -0.76259239017556D+02
 Leave Link  804 at Wed Feb  8 14:49:49 2023, MaxMem=   754974720 cpu:               3.3 elap:               1.1
 (Enter /opt/cluster/programs/g16-c.01/g16/l913.exe)
 CIDS:  MDV=   754974720.
 Frozen-core window:  NFC=   1 NFV=   0.
 IFCWin=0 IBDFC=1 NFBD=     0     0 NFCmp=     0     0 NFFFC=     0     0
 Using DD3R+UMP44R for 1st iteration.
 Using DD4RQ for 2nd and later iterations.
 Keep R2 and R3 ints in memory in symmetry-blocked form, NReq=1234037.
 FoFCou: FMM=F IPFlag=           0 FMFlag=           0 FMFlg1=           0
         NFxFlg=           0 DoJE=F BraDBF=F KetDBF=F FulRan=T
         wScrn=  0.000000 ICntrl=       600 IOpCl=  0 I1Cent=           0 NGrid=           0
         NMat0=    1 NMatS0=    861 NMatT0=    0 NMatD0=    1 NMtDS0=    0 NMtDT0=    0
 Petite list used in FoFCou.
 CIDS: In Core Option IDoMem=           1.
 CCSD(T)
 =======
 Iterations=  50 Convergence= 0.100D-06
 Produce multiple copies of IABC intergrals
 Iteration Nr.   1
 **********************
 DD1Dir will call FoFMem   1 times, MxPair=        20
 NAB=    10 NAA=     0 NBB=     0.
 MP4(R+Q)=  0.25632903D-02
 Maximum subspace dimension=  5
 A-vector RMS=  5.5898167D-03 Max=  1.7784133D-02 conv= 1.00D-05.
 RLE energy=       -0.2235222466
 E3=       -0.43131812D-02        EUMP3=      -0.76263552199D+02
 E4(DQ)=   -0.16594681D-02        UMP4(DQ)=   -0.76265211667D+02
 E4(SDQ)=  -0.35135573D-02        UMP4(SDQ)=  -0.76267065756D+02
 VARIATIONAL ENERGIES WITH THE FIRST-ORDER WAVEFUNCTION:
 DE(Corr)= -0.22350979     E(Corr)=     -76.260897686    
 NORM(A)=   0.10310185D+01
 Iteration Nr.   2
 **********************
 DD1Dir will call FoFMem   1 times, MxPair=        20
 NAB=    10 NAA=     0 NBB=     0.
 A-vector RMS=  6.7714353D-04 Max=  3.1627213D-03 conv= 1.00D-05.
 RLE energy=       -0.2290170597
 DE(Corr)= -0.22836543     E(CORR)=     -76.265753322     Delta=-4.86D-03
 NORM(A)=   0.10334155D+01
 Iteration Nr.   3
 **********************
 DD1Dir will call FoFMem   1 times, MxPair=        20
 NAB=    10 NAA=     0 NBB=     0.
 A-vector RMS=  7.8533791D-04 Max=  3.0234796D-03 conv= 1.00D-05.
 RLE energy=       -0.2294251432
 DE(Corr)= -0.22896453     E(CORR)=     -76.266352422     Delta=-5.99D-04
 NORM(A)=   0.10339955D+01
 Iteration Nr.   4
 **********************
 DD1Dir will call FoFMem   1 times, MxPair=        20
 NAB=    10 NAA=     0 NBB=     0.
 A-vector RMS=  1.0286246D-04 Max=  3.8697745D-04 conv= 1.00D-05.
 RLE energy=       -0.2294675468
 DE(Corr)= -0.22943374     E(CORR)=     -76.266821636     Delta=-4.69D-04
 NORM(A)=   0.10341230D+01
 Iteration Nr.   5
 **********************
 DD1Dir will call FoFMem   1 times, MxPair=        20
 NAB=    10 NAA=     0 NBB=     0.
 A-vector RMS=  4.1424079D-05 Max=  1.6865308D-04 conv= 1.00D-05.
 RLE energy=       -0.2294746286
 DE(Corr)= -0.22947027     E(CORR)=     -76.266858162     Delta=-3.65D-05
 NORM(A)=   0.10341437D+01
 Iteration Nr.   6
 **********************
 DD1Dir will call FoFMem   1 times, MxPair=        20
 NAB=    10 NAA=     0 NBB=     0.
 A-vector RMS=  1.1376643D-05 Max=  4.3198545D-05 conv= 1.00D-05.
 RLE energy=       -0.2294715316
 DE(Corr)= -0.22947287     E(CORR)=     -76.266860764     Delta=-2.60D-06
 NORM(A)=   0.10341456D+01
 Iteration Nr.   7
 **********************
 DD1Dir will call FoFMem   1 times, MxPair=        20
 NAB=    10 NAA=     0 NBB=     0.
 A-vector RMS=  4.4805308D-06 Max=  1.5697883D-05 conv= 1.00D-05.
 RLE energy=       -0.2294721387
 DE(Corr)= -0.22947290     E(CORR)=     -76.266860796     Delta=-3.20D-08
 NORM(A)=   0.10341462D+01
 Iteration Nr.   8
 **********************
 DD1Dir will call FoFMem   1 times, MxPair=        20
 NAB=    10 NAA=     0 NBB=     0.
 A-vector RMS=  1.4871131D-06 Max=  5.0423191D-06 conv= 1.00D-05.
 RLE energy=       -0.2294724148
 DE(Corr)= -0.22947252     E(CORR)=     -76.266860414     Delta= 3.83D-07
 NORM(A)=   0.10341467D+01
 Iteration Nr.   9
 **********************
 DD1Dir will call FoFMem   1 times, MxPair=        20
 NAB=    10 NAA=     0 NBB=     0.
 A-vector RMS=  4.1560714D-07 Max=  1.5956162D-06 conv= 1.00D-05.
 RLE energy=       -0.2294726700
 DE(Corr)= -0.22947268     E(CORR)=     -76.266860572     Delta=-1.58D-07
 NORM(A)=   0.10341469D+01
 Iteration Nr.  10
 **********************
 DD1Dir will call FoFMem   1 times, MxPair=        20
 NAB=    10 NAA=     0 NBB=     0.
 A-vector RMS=  2.0079425D-07 Max=  7.1637188D-07 conv= 1.00D-05.
 RLE energy=       -0.2294727117
 DE(Corr)= -0.22947269     E(CORR)=     -76.266860584     Delta=-1.24D-08
 NORM(A)=   0.10341470D+01
 CI/CC converged in   10 iterations to DelEn=-1.24D-08 Conv= 1.00D-07 ErrA1= 2.01D-07 Conv= 1.00D-05
 Wavefunction amplitudes converged. E(Corr)=     -76.266860584    
 Largest amplitude= 3.50D-02
 IPart=  3 IA=    3   10.95% done.
 IPart=  4 IA=    5   21.27% done.
 IPart=  3 IA=    7   30.95% done.
 IPart=  2 IA=    9   40.00% done.
 IPart=  3 IA=   12   52.38% done.
 IPart=  3 IA=   15   63.33% done.
 IPart=  2 IA=   18   72.86% done.
 IPart=  4 IA=   21   80.95% done.
 IPart=  4 IA=   26   91.27% done.
 Time for triples=        0.41 seconds.
 T4(CCSD)= -0.58499023D-02
 T5(CCSD)=  0.42540549D-03
 CCSD(T)= -0.76272285081D+02
 Discarding MO integrals.
 Leave Link  913 at Wed Feb  8 14:49:49 2023, MaxMem=   754974720 cpu:               1.4 elap:               0.4
 (Enter /opt/cluster/programs/g16-c.01/g16/l601.exe)
 Copying SCF densities to generalized density rwf, IOpCl= 0 IROHF=0.

 **********************************************************************

            Population analysis using the SCF Density.

 **********************************************************************

 Orbital symmetries:
       Occupied  (A') (A') (A') (A') (A")
       Virtual   (A') (A') (A') (A") (A') (A') (A') (A') (A") (A')
                 (A") (A') (A') (A') (A') (A') (A") (A') (A") (A')
                 (A') (A") (A') (A') (A") (A") (A') (A') (A') (A')
                 (A') (A") (A') (A") (A') (A')
 The electronic state is 1-A'.
 Alpha  occ. eigenvalues --  -20.58252  -1.34522  -0.70124  -0.58428  -0.50798
 Alpha virt. eigenvalues --    0.03474   0.05797   0.17422   0.19816   0.22040
 Alpha virt. eigenvalues --    0.23295   0.28162   0.33157   0.38475   0.39633
 Alpha virt. eigenvalues --    0.42709   0.53735   0.63791   0.65861   0.79579
 Alpha virt. eigenvalues --    0.92947   1.10569   1.11936   1.14616   1.28840
 Alpha virt. eigenvalues --    1.45389   1.47260   1.58083   1.98818   1.98932
 Alpha virt. eigenvalues --    2.10099   2.33313   2.41595   2.58578   2.70593
 Alpha virt. eigenvalues --    2.97936   3.67202   3.68735   3.69757   3.97683
 Alpha virt. eigenvalues --    4.26400
          Condensed to atoms (all electrons):
               1          2          3
     1  O    7.700012   0.333542   0.317703
     2  H    0.333542   0.543230  -0.025243
     3  H    0.317703  -0.025243   0.504752
 Mulliken charges:
               1
     1  O   -0.351257
     2  H    0.148470
     3  H    0.202787
 Sum of Mulliken charges =  -0.00000
 Mulliken charges with hydrogens summed into heavy atoms:
               1
     1  O   -0.000000
 Electronic spatial extent (au):  <R**2>=             19.8841
 Charge=              0.0000 electrons
 Dipole moment (field-independent basis, Debye):
    X=              0.0245    Y=             -2.0538    Z=              0.0000  Tot=              2.0539
 Quadrupole moment (field-independent basis, Debye-Ang):
   XX=             -4.3151   YY=             -6.2048   ZZ=             -7.6477
   XY=              0.1339   XZ=              0.0000   YZ=              0.0000
 Traceless Quadrupole moment (field-independent basis, Debye-Ang):
   XX=              1.7408   YY=             -0.1489   ZZ=             -1.5919
   XY=              0.1339   XZ=              0.0000   YZ=              0.0000
 Octapole moment (field-independent basis, Debye-Ang**2):
  XXX=              0.0742  YYY=             -1.2229  ZZZ=              0.0000  XYY=             -0.1002
  XXY=             -1.4617  XXZ=              0.0000  XZZ=              0.0311  YZZ=             -0.2799
  YYZ=              0.0000  XYZ=              0.0000
 Hexadecapole moment (field-independent basis, Debye-Ang**3):
 XXXX=             -6.2616 YYYY=             -7.5357 ZZZZ=             -6.8881 XXXY=             -0.0060
 XXXZ=              0.0000 YYYX=              0.0054 YYYZ=              0.0000 ZZZX=              0.0000
 ZZZY=              0.0000 XXYY=             -1.9055 XXZZ=             -2.5191 YYZZ=             -2.4677
 XXYZ=              0.0000 YYXZ=              0.0000 ZZXY=             -0.0373
 N-N= 8.954897148849D+00 E-N=-1.983748670303D+02  KE= 7.583278878615D+01
 Symmetry A'   KE= 7.138210339420D+01
 Symmetry A"   KE= 4.450685391952D+00
 Leave Link  601 at Wed Feb  8 14:49:49 2023, MaxMem=   754974720 cpu:               0.1 elap:               0.0
 (Enter /opt/cluster/programs/g16-c.01/g16/l9999.exe)
 Unable to Open any file for archive entry.
 1\1\GINC-NODE58\SP\RCCSD(T)-FC\Aug-CC-pVDZ\H2O1\BOITTIER\08-Feb-2023\0
 \\#P CCSD(T)/aug-cc-pVDZ scf(maxcycle=200)\\Gaussian input\\0,1\O,0,0.
 ,0.11751,0.\H,0,0.7578497316,-0.4701504329,0.\H,0,-0.7756614181,-0.527
 8041596,0.\\Version=ES64L-G16RevC.01\State=1-A'\HF=-76.0373879\MP2=-76
 .259239\MP3=-76.2635522\MP4D=-76.267775\MP4DQ=-76.2652117\MP4SDQ=-76.2
 670658\CCSD=-76.2668606\CCSD(T)=-76.2722851\RMSD=9.552e-09\PG=CS [SG(H
 2O1)]\\@
 The archive entry for this job was punched.


 Where a calculator on the ENIAC is equipped with 18,000
 vacuum tubes and weighs 30 tons, computers inthe future
 may  have only 1,000 vacuum tubes and weigh only 1 1/2 tons.
              ---Popular Mechanics, March 1949
 Job cpu time:       0 days  0 hours  0 minutes  8.1 seconds.
 Elapsed time:       0 days  0 hours  0 minutes  2.5 seconds.
 File lengths (MBytes):  RWF=     15 Int=      0 D2E=      0 Chk=      1 Scr=      1
 Normal termination of Gaussian 16 at Wed Feb  8 14:49:49 2023.
