 Entering Gaussian System, Link 0=/opt/cluster/programs/g16-c.01/g16/g16
 Input=/scratch/boittier/jobs/tmp.7261823/gaussian_147_water_ccsdt_atz.com
 Output=/scratch/boittier/jobs/tmp.7261823/gaussian_147_water_ccsdt_atz.out
 Initial command:
 /opt/cluster/programs/g16-c.01/g16/l1.exe "/scratch/boittier/jobs/tmp.7261823/Gau-108324.inp" -scrdir="/scratch/boittier/jobs/tmp.7261823/"
 Entering Link 1 = /opt/cluster/programs/g16-c.01/g16/l1.exe PID=    108325.
  
 Copyright (c) 1988-2019, Gaussian, Inc.  All Rights Reserved.
  
 This is part of the Gaussian(R) 16 program.  It is based on
 the Gaussian(R) 09 system (copyright 2009, Gaussian, Inc.),
 the Gaussian(R) 03 system (copyright 2003, Gaussian, Inc.),
 the Gaussian(R) 98 system (copyright 1998, Gaussian, Inc.),
 the Gaussian(R) 94 system (copyright 1995, Gaussian, Inc.),
 the Gaussian 92(TM) system (copyright 1992, Gaussian, Inc.),
 the Gaussian 90(TM) system (copyright 1990, Gaussian, Inc.),
 the Gaussian 88(TM) system (copyright 1988, Gaussian, Inc.),
 the Gaussian 86(TM) system (copyright 1986, Carnegie Mellon
 University), and the Gaussian 82(TM) system (copyright 1983,
 Carnegie Mellon University). Gaussian is a federally registered
 trademark of Gaussian, Inc.
  
 This software contains proprietary and confidential information,
 including trade secrets, belonging to Gaussian, Inc.
  
 This software is provided under written license and may be
 used, copied, transmitted, or stored only in accord with that
 written license.
  
 The following legend is applicable only to US Government
 contracts under FAR:
  
                    RESTRICTED RIGHTS LEGEND
  
 Use, reproduction and disclosure by the US Government is
 subject to restrictions as set forth in subparagraphs (a)
 and (c) of the Commercial Computer Software - Restricted
 Rights clause in FAR 52.227-19.
  
 Gaussian, Inc.
 340 Quinnipiac St., Bldg. 40, Wallingford CT 06492
  
  
 ---------------------------------------------------------------
 Warning -- This program may not be used in any manner that
 competes with the business of Gaussian, Inc. or will provide
 assistance to any competitor of Gaussian, Inc.  The licensee
 of this program is prohibited from giving any competitor of
 Gaussian, Inc. access to this program.  By using this program,
 the user acknowledges that Gaussian, Inc. is engaged in the
 business of creating and licensing software in the field of
 computational chemistry and represents and warrants to the
 licensee that it is not a competitor of Gaussian, Inc. and that
 it will not use this program in any manner prohibited above.
 ---------------------------------------------------------------
  

 Cite this work as:
 Gaussian 16, Revision C.01,
 M. J. Frisch, G. W. Trucks, H. B. Schlegel, G. E. Scuseria, 
 M. A. Robb, J. R. Cheeseman, G. Scalmani, V. Barone, 
 G. A. Petersson, H. Nakatsuji, X. Li, M. Caricato, A. V. Marenich, 
 J. Bloino, B. G. Janesko, R. Gomperts, B. Mennucci, H. P. Hratchian, 
 J. V. Ortiz, A. F. Izmaylov, J. L. Sonnenberg, D. Williams-Young, 
 F. Ding, F. Lipparini, F. Egidi, J. Goings, B. Peng, A. Petrone, 
 T. Henderson, D. Ranasinghe, V. G. Zakrzewski, J. Gao, N. Rega, 
 G. Zheng, W. Liang, M. Hada, M. Ehara, K. Toyota, R. Fukuda, 
 J. Hasegawa, M. Ishida, T. Nakajima, Y. Honda, O. Kitao, H. Nakai, 
 T. Vreven, K. Throssell, J. A. Montgomery, Jr., J. E. Peralta, 
 F. Ogliaro, M. J. Bearpark, J. J. Heyd, E. N. Brothers, K. N. Kudin, 
 V. N. Staroverov, T. A. Keith, R. Kobayashi, J. Normand, 
 K. Raghavachari, A. P. Rendell, J. C. Burant, S. S. Iyengar, 
 J. Tomasi, M. Cossi, J. M. Millam, M. Klene, C. Adamo, R. Cammi, 
 J. W. Ochterski, R. L. Martin, K. Morokuma, O. Farkas, 
 J. B. Foresman, and D. J. Fox, Gaussian, Inc., Wallingford CT, 2019.
 
 ******************************************
 Gaussian 16:  ES64L-G16RevC.01  3-Jul-2019
                 8-Feb-2023 
 ******************************************
 %nproc=4
 Will use up to    4 processors via shared memory.
 %mem=5760MB
 %chk=gaussian_147_water_ccsdt_atz.chk
 ----------------------------------------
 #P CCSD(T)/aug-cc-pVTZ scf(maxcycle=200)
 ----------------------------------------
 1/38=1,172=1/1;
 2/12=2,17=6,18=5,40=1/2;
 3/5=16,6=1,7=10,11=9,25=1,30=1/1,2,3;
 4//1;
 5/5=2,7=200,38=5/2;
 8/6=4,9=120000,10=1/1,4;
 9/5=7,14=2/13;
 6/7=2,8=2,9=2,10=2/1;
 99/5=1,9=1/99;
 Leave Link    1 at Wed Feb  8 13:56:22 2023, MaxMem=   754974720 cpu:               0.2 elap:               0.1
 (Enter /opt/cluster/programs/g16-c.01/g16/l101.exe)
 --------------
 Gaussian input
 --------------
 Symbolic Z-matrix:
 Charge =  0 Multiplicity = 1
 O                     0.        0.11751   0. 
 H                     0.79736  -0.50079   0. 
 H                    -0.69264  -0.54576   0. 
 
 ITRead=  0  0  0
 MicOpt= -1 -1 -1
 NAtoms=      3 NQM=        3 NQMF=       0 NMMI=      0 NMMIF=      0
                NMic=       0 NMicF=      0.
                    Isotopes and Nuclear Properties:
 (Nuclear quadrupole moments (NQMom) in fm**2, nuclear magnetic moments (NMagM)
  in nuclear magnetons)

  Atom         1           2           3
 IAtWgt=          16           1           1
 AtmWgt=  15.9949146   1.0078250   1.0078250
 NucSpn=           0           1           1
 AtZEff=  -0.0000000  -0.0000000  -0.0000000
 NQMom=    0.0000000   0.0000000   0.0000000
 NMagM=    0.0000000   2.7928460   2.7928460
 AtZNuc=   8.0000000   1.0000000   1.0000000
 Leave Link  101 at Wed Feb  8 13:56:23 2023, MaxMem=   754974720 cpu:               0.7 elap:               0.2
 (Enter /opt/cluster/programs/g16-c.01/g16/l202.exe)
                          Input orientation:                          
 ---------------------------------------------------------------------
 Center     Atomic      Atomic             Coordinates (Angstroms)
 Number     Number       Type             X           Y           Z
 ---------------------------------------------------------------------
      1          8           0        0.000000    0.117510    0.000000
      2          1           0        0.797362   -0.500790    0.000000
      3          1           0       -0.692644   -0.545758    0.000000
 ---------------------------------------------------------------------
                    Distance matrix (angstroms):
                    1          2          3
     1  O    0.000000
     2  H    1.009000   0.000000
     3  H    0.959000   1.490685   0.000000
 Stoichiometry    H2O
 Framework group  CS[SG(H2O)]
 Deg. of freedom     3
 Full point group                 CS      NOp   2
 Largest Abelian subgroup         CS      NOp   2
 Largest concise Abelian subgroup C1      NOp   1
                         Standard orientation:                         
 ---------------------------------------------------------------------
 Center     Atomic      Atomic             Coordinates (Angstroms)
 Number     Number       Type             X           Y           Z
 ---------------------------------------------------------------------
      1          8           0        0.000000    0.128584    0.000000
      2          1           0        0.744360   -0.552599    0.000000
      3          1           0       -0.744360   -0.476073   -0.000000
 ---------------------------------------------------------------------
 Rotational constants (GHZ):         688.2898438         449.0545999         271.7555989
 Leave Link  202 at Wed Feb  8 13:56:23 2023, MaxMem=   754974720 cpu:               0.0 elap:               0.0
 (Enter /opt/cluster/programs/g16-c.01/g16/l301.exe)
 Standard basis: Aug-CC-pVTZ (5D, 7F)
 Ernie: Thresh=  0.10000D-02 Tol=  0.10000D-05 Strict=F.
 Ernie:  3 primitive shells out of 52 were deleted.
 There are    73 symmetry adapted cartesian basis functions of A'  symmetry.
 There are    32 symmetry adapted cartesian basis functions of A"  symmetry.
 There are    62 symmetry adapted basis functions of A'  symmetry.
 There are    30 symmetry adapted basis functions of A"  symmetry.
    92 basis functions,   126 primitive gaussians,   105 cartesian basis functions
     5 alpha electrons        5 beta electrons
       nuclear repulsion energy         8.9650545183 Hartrees.
 IExCor=    0 DFT=F Ex=HF Corr=None ExCW=0 ScaHFX=  1.000000
 ScaDFX=  1.000000  1.000000  1.000000  1.000000 ScalE2=  1.000000  1.000000
 IRadAn=      5 IRanWt=     -1 IRanGd=            0 ICorTp=0 IEmpDi=  4
 NAtoms=    3 NActive=    3 NUniq=    3 SFac= 1.00D+00 NAtFMM=   60 NAOKFM=F Big=F
 Integral buffers will be    131072 words long.
 Raffenetti 1 integral format.
 Two-electron integral symmetry is turned on.
 Leave Link  301 at Wed Feb  8 13:56:23 2023, MaxMem=   754974720 cpu:               0.1 elap:               0.0
 (Enter /opt/cluster/programs/g16-c.01/g16/l302.exe)
 NPDir=0 NMtPBC=     1 NCelOv=     1 NCel=       1 NClECP=     1 NCelD=      1
         NCelK=      1 NCelE2=     1 NClLst=     1 CellRange=     0.0.
 One-electron integrals computed using PRISM.
 One-electron integral symmetry used in STVInt
 NBasis=    92 RedAO= T EigKep=  4.03D-04  NBF=    62    30
 NBsUse=    92 1.00D-06 EigRej= -1.00D+00 NBFU=    62    30
 Leave Link  302 at Wed Feb  8 13:56:23 2023, MaxMem=   754974720 cpu:               0.4 elap:               0.1
 (Enter /opt/cluster/programs/g16-c.01/g16/l303.exe)
 DipDrv:  MaxL=1.
 Leave Link  303 at Wed Feb  8 13:56:23 2023, MaxMem=   754974720 cpu:               0.2 elap:               0.1
 (Enter /opt/cluster/programs/g16-c.01/g16/l401.exe)
 ExpMin= 2.53D-02 ExpMax= 1.53D+04 ExpMxC= 5.22D+02 IAcc=3 IRadAn=         5 AccDes= 0.00D+00
 Harris functional with IExCor=  205 and IRadAn=       5 diagonalized for initial guess.
 HarFok:  IExCor=  205 AccDes= 0.00D+00 IRadAn=         5 IDoV= 1 UseB2=F ITyADJ=14
 ICtDFT=  3500011 ScaDFX=  1.000000  1.000000  1.000000  1.000000
 FoFCou: FMM=F IPFlag=           0 FMFlag=      100000 FMFlg1=           0
         NFxFlg=           0 DoJE=T BraDBF=F KetDBF=T FulRan=T
         wScrn=  0.000000 ICntrl=       500 IOpCl=  0 I1Cent=   200000004 NGrid=           0
         NMat0=    1 NMatS0=      1 NMatT0=    0 NMatD0=    1 NMtDS0=    0 NMtDT0=    0
 Petite list used in FoFCou.
 Harris En= -76.1486113838572    
 JPrj=0 DoOrth=F DoCkMO=F.
 Initial guess orbital symmetries:
       Occupied  (A') (A') (A') (A') (A")
       Virtual   (A') (A') (A') (A") (A') (A') (A') (A') (A") (A')
                 (A") (A') (A') (A') (A') (A') (A') (A") (A") (A')
                 (A") (A') (A') (A") (A") (A') (A') (A') (A') (A")
                 (A') (A') (A") (A') (A") (A') (A") (A') (A') (A')
                 (A') (A") (A") (A') (A') (A") (A') (A') (A') (A")
                 (A') (A') (A") (A') (A') (A") (A") (A') (A") (A')
                 (A') (A") (A") (A') (A') (A') (A") (A') (A') (A')
                 (A") (A') (A') (A') (A") (A') (A") (A") (A') (A")
                 (A') (A") (A') (A') (A') (A') (A')
 The electronic state of the initial guess is 1-A'.
 Leave Link  401 at Wed Feb  8 13:56:23 2023, MaxMem=   754974720 cpu:               0.7 elap:               0.2
 (Enter /opt/cluster/programs/g16-c.01/g16/l502.exe)
 Keep R1 ints in memory in symmetry-blocked form, NReq=13818732.
 FoFCou: FMM=F IPFlag=           0 FMFlag=           0 FMFlg1=           0
         NFxFlg=           0 DoJE=F BraDBF=F KetDBF=F FulRan=T
         wScrn=  0.000000 ICntrl=       600 IOpCl=  0 I1Cent=           0 NGrid=           0
         NMat0=    1 NMatS0=   4278 NMatT0=    0 NMatD0=    1 NMtDS0=    0 NMtDT0=    0
 Petite list used in FoFCou.
 Closed shell SCF:
 Using DIIS extrapolation, IDIIS=  1040.
 NGot=   754974720 LenX=   750285684 LenY=   750274218
 Requested convergence on RMS density matrix=1.00D-08 within 200 cycles.
 Requested convergence on MAX density matrix=1.00D-06.
 Requested convergence on             energy=1.00D-06.
 No special actions if energy rises.

 Cycle   1  Pass 1  IDiag  1:
 E= -75.9683416966666    
 DIIS: error= 5.89D-02 at cycle   1 NSaved=   1.
 NSaved= 1 IEnMin= 1 EnMin= -75.9683416966666     IErMin= 1 ErrMin= 5.89D-02
 ErrMax= 5.89D-02  0.00D+00 EMaxC= 1.00D-01 BMatC= 1.98D-01 BMatP= 1.98D-01
 IDIUse=3 WtCom= 4.11D-01 WtEn= 5.89D-01
 Coeff-Com:  0.100D+01
 Coeff-En:   0.100D+01
 Coeff:      0.100D+01
 Gap=     0.454 Goal=   None    Shift=    0.000
 GapD=    0.454 DampG=2.000 DampE=0.500 DampFc=1.0000 IDamp=-1.
 RMSDP=2.13D-03 MaxDP=4.74D-02              OVMax= 1.27D-01

 Cycle   2  Pass 1  IDiag  1:
 E= -76.0174193850038     Delta-E=       -0.049077688337 Rises=F Damp=F
 DIIS: error= 4.08D-02 at cycle   2 NSaved=   2.
 NSaved= 2 IEnMin= 2 EnMin= -76.0174193850038     IErMin= 2 ErrMin= 4.08D-02
 ErrMax= 4.08D-02  0.00D+00 EMaxC= 1.00D-01 BMatC= 6.04D-02 BMatP= 1.98D-01
 IDIUse=3 WtCom= 5.92D-01 WtEn= 4.08D-01
 Coeff-Com:  0.328D+00 0.672D+00
 Coeff-En:   0.223D+00 0.777D+00
 Coeff:      0.285D+00 0.715D+00
 Gap=     0.565 Goal=   None    Shift=    0.000
 RMSDP=1.33D-03 MaxDP=3.56D-02 DE=-4.91D-02 OVMax= 6.61D-02

 Cycle   3  Pass 1  IDiag  1:
 E= -76.0535339535134     Delta-E=       -0.036114568510 Rises=F Damp=F
 DIIS: error= 8.28D-03 at cycle   3 NSaved=   3.
 NSaved= 3 IEnMin= 3 EnMin= -76.0535339535134     IErMin= 3 ErrMin= 8.28D-03
 ErrMax= 8.28D-03  0.00D+00 EMaxC= 1.00D-01 BMatC= 2.90D-03 BMatP= 6.04D-02
 IDIUse=3 WtCom= 9.17D-01 WtEn= 8.28D-02
 Coeff-Com: -0.316D-01 0.148D+00 0.883D+00
 Coeff-En:   0.000D+00 0.000D+00 0.100D+01
 Coeff:     -0.290D-01 0.136D+00 0.893D+00
 Gap=     0.536 Goal=   None    Shift=    0.000
 RMSDP=2.25D-04 MaxDP=4.30D-03 DE=-3.61D-02 OVMax= 1.34D-02

 Cycle   4  Pass 1  IDiag  1:
 E= -76.0553810341431     Delta-E=       -0.001847080630 Rises=F Damp=F
 DIIS: error= 7.83D-04 at cycle   4 NSaved=   4.
 NSaved= 4 IEnMin= 4 EnMin= -76.0553810341431     IErMin= 4 ErrMin= 7.83D-04
 ErrMax= 7.83D-04  0.00D+00 EMaxC= 1.00D-01 BMatC= 1.65D-05 BMatP= 2.90D-03
 IDIUse=3 WtCom= 9.92D-01 WtEn= 7.83D-03
 Coeff-Com:  0.734D-02-0.577D-01-0.252D+00 0.130D+01
 Coeff-En:   0.000D+00 0.000D+00 0.000D+00 0.100D+01
 Coeff:      0.728D-02-0.572D-01-0.250D+00 0.130D+01
 Gap=     0.538 Goal=   None    Shift=    0.000
 RMSDP=4.10D-05 MaxDP=7.68D-04 DE=-1.85D-03 OVMax= 2.42D-03

 Cycle   5  Pass 1  IDiag  1:
 E= -76.0554096529493     Delta-E=       -0.000028618806 Rises=F Damp=F
 DIIS: error= 2.16D-04 at cycle   5 NSaved=   5.
 NSaved= 5 IEnMin= 5 EnMin= -76.0554096529493     IErMin= 5 ErrMin= 2.16D-04
 ErrMax= 2.16D-04  0.00D+00 EMaxC= 1.00D-01 BMatC= 8.09D-07 BMatP= 1.65D-05
 IDIUse=3 WtCom= 9.98D-01 WtEn= 2.16D-03
 Coeff-Com:  0.365D-03 0.175D-02 0.443D-02-0.268D+00 0.126D+01
 Coeff-En:   0.000D+00 0.000D+00 0.000D+00 0.000D+00 0.100D+01
 Coeff:      0.365D-03 0.175D-02 0.442D-02-0.267D+00 0.126D+01
 Gap=     0.539 Goal=   None    Shift=    0.000
 RMSDP=1.19D-05 MaxDP=2.67D-04 DE=-2.86D-05 OVMax= 8.17D-04

 Cycle   6  Pass 1  IDiag  1:
 E= -76.0554116634470     Delta-E=       -0.000002010498 Rises=F Damp=F
 DIIS: error= 3.23D-05 at cycle   6 NSaved=   6.
 NSaved= 6 IEnMin= 6 EnMin= -76.0554116634470     IErMin= 6 ErrMin= 3.23D-05
 ErrMax= 3.23D-05  0.00D+00 EMaxC= 1.00D-01 BMatC= 2.52D-08 BMatP= 8.09D-07
 IDIUse=1 WtCom= 1.00D+00 WtEn= 0.00D+00
 Coeff-Com: -0.312D-03 0.152D-02 0.642D-02 0.167D-01-0.328D+00 0.130D+01
 Coeff:     -0.312D-03 0.152D-02 0.642D-02 0.167D-01-0.328D+00 0.130D+01
 Gap=     0.539 Goal=   None    Shift=    0.000
 RMSDP=2.51D-06 MaxDP=6.31D-05 DE=-2.01D-06 OVMax= 1.74D-04

 Cycle   7  Pass 1  IDiag  1:
 E= -76.0554117387598     Delta-E=       -0.000000075313 Rises=F Damp=F
 DIIS: error= 4.81D-06 at cycle   7 NSaved=   7.
 NSaved= 7 IEnMin= 7 EnMin= -76.0554117387598     IErMin= 7 ErrMin= 4.81D-06
 ErrMax= 4.81D-06  0.00D+00 EMaxC= 1.00D-01 BMatC= 1.08D-09 BMatP= 2.52D-08
 IDIUse=1 WtCom= 1.00D+00 WtEn= 0.00D+00
 Coeff-Com:  0.271D-04-0.338D-03-0.147D-02 0.153D-01-0.281D-01-0.137D+00
 Coeff-Com:  0.115D+01
 Coeff:      0.271D-04-0.338D-03-0.147D-02 0.153D-01-0.281D-01-0.137D+00
 Coeff:      0.115D+01
 Gap=     0.539 Goal=   None    Shift=    0.000
 RMSDP=3.60D-07 MaxDP=7.30D-06 DE=-7.53D-08 OVMax= 2.71D-05

 Cycle   8  Pass 1  IDiag  1:
 E= -76.0554117409099     Delta-E=       -0.000000002150 Rises=F Damp=F
 DIIS: error= 1.05D-06 at cycle   8 NSaved=   8.
 NSaved= 8 IEnMin= 8 EnMin= -76.0554117409099     IErMin= 8 ErrMin= 1.05D-06
 ErrMax= 1.05D-06  0.00D+00 EMaxC= 1.00D-01 BMatC= 5.31D-11 BMatP= 1.08D-09
 IDIUse=1 WtCom= 1.00D+00 WtEn= 0.00D+00
 Coeff-Com:  0.792D-05 0.108D-04 0.105D-03-0.472D-02 0.214D-01-0.205D-01
 Coeff-Com: -0.332D+00 0.134D+01
 Coeff:      0.792D-05 0.108D-04 0.105D-03-0.472D-02 0.214D-01-0.205D-01
 Coeff:     -0.332D+00 0.134D+01
 Gap=     0.539 Goal=   None    Shift=    0.000
 RMSDP=1.15D-07 MaxDP=2.26D-06 DE=-2.15D-09 OVMax= 7.07D-06

 Cycle   9  Pass 1  IDiag  1:
 E= -76.0554117410460     Delta-E=       -0.000000000136 Rises=F Damp=F
 DIIS: error= 1.95D-07 at cycle   9 NSaved=   9.
 NSaved= 9 IEnMin= 9 EnMin= -76.0554117410460     IErMin= 9 ErrMin= 1.95D-07
 ErrMax= 1.95D-07  0.00D+00 EMaxC= 1.00D-01 BMatC= 1.17D-12 BMatP= 5.31D-11
 IDIUse=1 WtCom= 1.00D+00 WtEn= 0.00D+00
 Coeff-Com: -0.225D-05 0.397D-05-0.221D-05 0.798D-03-0.403D-02 0.592D-02
 Coeff-Com:  0.643D-01-0.359D+00 0.129D+01
 Coeff:     -0.225D-05 0.397D-05-0.221D-05 0.798D-03-0.403D-02 0.592D-02
 Coeff:      0.643D-01-0.359D+00 0.129D+01
 Gap=     0.539 Goal=   None    Shift=    0.000
 RMSDP=1.99D-08 MaxDP=3.95D-07 DE=-1.36D-10 OVMax= 9.75D-07

 Cycle  10  Pass 1  IDiag  1:
 E= -76.0554117410489     Delta-E=       -0.000000000003 Rises=F Damp=F
 DIIS: error= 4.21D-08 at cycle  10 NSaved=  10.
 NSaved=10 IEnMin=10 EnMin= -76.0554117410489     IErMin=10 ErrMin= 4.21D-08
 ErrMax= 4.21D-08  0.00D+00 EMaxC= 1.00D-01 BMatC= 5.44D-14 BMatP= 1.17D-12
 IDIUse=1 WtCom= 1.00D+00 WtEn= 0.00D+00
 Coeff-Com:  0.268D-06-0.142D-05-0.365D-05-0.250D-04 0.238D-03-0.892D-03
 Coeff-Com: -0.148D-02 0.306D-01-0.309D+00 0.128D+01
 Coeff:      0.268D-06-0.142D-05-0.365D-05-0.250D-04 0.238D-03-0.892D-03
 Coeff:     -0.148D-02 0.306D-01-0.309D+00 0.128D+01
 Gap=     0.539 Goal=   None    Shift=    0.000
 RMSDP=4.74D-09 MaxDP=1.12D-07 DE=-2.84D-12 OVMax= 2.62D-07

 SCF Done:  E(RHF) =  -76.0554117410     A.U. after   10 cycles
            NFock= 10  Conv=0.47D-08     -V/T= 2.0024
 KE= 7.587169606493D+01 PE=-1.984867637079D+02 EE= 3.759460138363D+01
 Leave Link  502 at Wed Feb  8 13:56:24 2023, MaxMem=   754974720 cpu:               2.1 elap:               0.6
 (Enter /opt/cluster/programs/g16-c.01/g16/l801.exe)
 Windowed orbitals will be sorted by symmetry type.
 ExpMin= 2.53D-02 ExpMax= 1.53D+04 ExpMxC= 5.22D+02 IAcc=3 IRadAn=         5 AccDes= 0.00D+00
 HarFok:  IExCor=  205 AccDes= 0.00D+00 IRadAn=         5 IDoV=-2 UseB2=F ITyADJ=14
 ICtDFT= 12500011 ScaDFX=  1.000000  1.000000  1.000000  1.000000
 Largest valence mixing into a core orbital is  1.13D-04
 Largest core mixing into a valence orbital is  1.77D-05
 Range of M.O.s used for correlation:     2    92
 NBasis=    92 NAE=     5 NBE=     5 NFC=     1 NFV=     0
 NROrb=     91 NOA=     4 NOB=     4 NVA=    87 NVB=    87

 **** Warning!!: The largest alpha MO coefficient is  0.14753278D+02

 Leave Link  801 at Wed Feb  8 13:56:24 2023, MaxMem=   754974720 cpu:               0.3 elap:               0.1
 (Enter /opt/cluster/programs/g16-c.01/g16/l804.exe)
 Closed-shell transformation, MDV=   754974720 ITran=4 ISComp=2.
 Unit  1 TFree=        277501 TCopy=        343607.
 Semi-Direct transformation.
 ModeAB=           2 MOrb=             4 LenV=     754586778
 LASXX=       736380 LTotXX=      736380 LenRXX=      736380
 LTotAB=      763744 MaxLAS=     2025660 LenRXY=     2025660
 NonZer=     2107560 LenScr=     3929600 LnRSAI=           0
 LnScr1=           0 LExtra=           0 Total=      6691640
 MaxDsk=          -1 SrtSym=           F ITran=            4
 DoSDTr:  NPSUse=  4
 JobTyp=0 Pass  1:  I=   1 to   4.
 (rs|ai) integrals will be sorted in core.
 Complete sort for first half transformation.
 First half transformation complete.
 Complete sort for second half transformation.
 Second half transformation complete.
 Spin components of T(2) and E(2):
     alpha-alpha T2 =       0.8391857050D-02 E2=     -0.3289572151D-01
     alpha-beta  T2 =       0.4887766686D-01 E2=     -0.2052910450D+00
     beta-beta   T2 =       0.8391857050D-02 E2=     -0.3289572151D-01
 ANorm=    0.1032308762D+01
 E2 =    -0.2710824881D+00 EUMP2 =    -0.76326494229103D+02
 Leave Link  804 at Wed Feb  8 13:56:24 2023, MaxMem=   754974720 cpu:               2.4 elap:               0.6
 (Enter /opt/cluster/programs/g16-c.01/g16/l913.exe)
 CIDS:  MDV=   754974720.
 Frozen-core window:  NFC=   1 NFV=   0.
 IFCWin=0 IBDFC=1 NFBD=     0     0 NFCmp=     0     0 NFFFC=     0     0
 Using DD3R+UMP44R for 1st iteration.
 Using DD4RQ for 2nd and later iterations.
 Keep R2 and R3 ints in memory in symmetry-blocked form, NReq=13979827.
 FoFCou: FMM=F IPFlag=           0 FMFlag=           0 FMFlg1=           0
         NFxFlg=           0 DoJE=F BraDBF=F KetDBF=F FulRan=T
         wScrn=  0.000000 ICntrl=       600 IOpCl=  0 I1Cent=           0 NGrid=           0
         NMat0=    1 NMatS0=   4278 NMatT0=    0 NMatD0=    1 NMtDS0=    0 NMtDT0=    0
 Petite list used in FoFCou.
 CIDS: In Core Option IDoMem=           1.
 CCSD(T)
 =======
 Iterations=  50 Convergence= 0.100D-06
 Produce multiple copies of IABC intergrals
 Iteration Nr.   1
 **********************
 DD1Dir will call FoFMem   1 times, MxPair=        20
 NAB=    10 NAA=     0 NBB=     0.
 MP4(R+Q)=  0.41995777D-02
 Maximum subspace dimension=  5
 A-vector RMS=  2.9858394D-03 Max=  1.2853031D-02 conv= 1.00D-05.
 RLE energy=       -0.2689074767
 E3=       -0.20510627D-02        EUMP3=      -0.76328545292D+02
 E4(DQ)=   -0.79189352D-03        UMP4(DQ)=   -0.76329337185D+02
 E4(SDQ)=  -0.28416941D-02        UMP4(SDQ)=  -0.76331386986D+02
 VARIATIONAL ENERGIES WITH THE FIRST-ORDER WAVEFUNCTION:
 DE(Corr)= -0.26888989     E(Corr)=     -76.324301633    
 NORM(A)=   0.10319846D+01
 Iteration Nr.   2
 **********************
 DD1Dir will call FoFMem   1 times, MxPair=        20
 NAB=    10 NAA=     0 NBB=     0.
 A-vector RMS=  3.2703392D-04 Max=  2.3137214D-03 conv= 1.00D-05.
 RLE energy=       -0.2750676815
 DE(Corr)= -0.27466464     E(CORR)=     -76.330076386     Delta=-5.77D-03
 NORM(A)=   0.10342947D+01
 Iteration Nr.   3
 **********************
 DD1Dir will call FoFMem   1 times, MxPair=        20
 NAB=    10 NAA=     0 NBB=     0.
 A-vector RMS=  4.2264005D-04 Max=  2.3755866D-03 conv= 1.00D-05.
 RLE energy=       -0.2754129455
 DE(Corr)= -0.27499726     E(CORR)=     -76.330409001     Delta=-3.33D-04
 NORM(A)=   0.10347705D+01
 Iteration Nr.   4
 **********************
 DD1Dir will call FoFMem   1 times, MxPair=        20
 NAB=    10 NAA=     0 NBB=     0.
 A-vector RMS=  6.7950894D-05 Max=  3.9773326D-04 conv= 1.00D-05.
 RLE energy=       -0.2754513160
 DE(Corr)= -0.27541969     E(CORR)=     -76.330831430     Delta=-4.22D-04
 NORM(A)=   0.10348967D+01
 Iteration Nr.   5
 **********************
 DD1Dir will call FoFMem   1 times, MxPair=        20
 NAB=    10 NAA=     0 NBB=     0.
 A-vector RMS=  3.2348936D-05 Max=  2.0347504D-04 conv= 1.00D-05.
 RLE energy=       -0.2754652298
 DE(Corr)= -0.27545903     E(CORR)=     -76.330870768     Delta=-3.93D-05
 NORM(A)=   0.10349221D+01
 Iteration Nr.   6
 **********************
 DD1Dir will call FoFMem   1 times, MxPair=        20
 NAB=    10 NAA=     0 NBB=     0.
 A-vector RMS=  7.5982935D-06 Max=  4.3699381D-05 conv= 1.00D-05.
 RLE energy=       -0.2754611761
 DE(Corr)= -0.27546221     E(CORR)=     -76.330873946     Delta=-3.18D-06
 NORM(A)=   0.10349241D+01
 Iteration Nr.   7
 **********************
 DD1Dir will call FoFMem   1 times, MxPair=        20
 NAB=    10 NAA=     0 NBB=     0.
 A-vector RMS=  2.6045893D-06 Max=  1.2111433D-05 conv= 1.00D-05.
 RLE energy=       -0.2754612527
 DE(Corr)= -0.27546222     E(CORR)=     -76.330873965     Delta=-1.90D-08
 NORM(A)=   0.10349248D+01
 Iteration Nr.   8
 **********************
 DD1Dir will call FoFMem   1 times, MxPair=        20
 NAB=    10 NAA=     0 NBB=     0.
 A-vector RMS=  1.0104076D-06 Max=  5.6550437D-06 conv= 1.00D-05.
 RLE energy=       -0.2754618172
 DE(Corr)= -0.27546194     E(CORR)=     -76.330873679     Delta= 2.86D-07
 NORM(A)=   0.10349252D+01
 Iteration Nr.   9
 **********************
 DD1Dir will call FoFMem   1 times, MxPair=        20
 NAB=    10 NAA=     0 NBB=     0.
 A-vector RMS=  2.4747300D-07 Max=  1.2844734D-06 conv= 1.00D-05.
 RLE energy=       -0.2754619257
 DE(Corr)= -0.27546195     E(CORR)=     -76.330873687     Delta=-7.45D-09
 NORM(A)=   0.10349254D+01
 CI/CC converged in    9 iterations to DelEn=-7.45D-09 Conv= 1.00D-07 ErrA1= 2.47D-07 Conv= 1.00D-05
 Wavefunction amplitudes converged. E(Corr)=     -76.330873687    
 Largest amplitude= 2.33D-02
 IPart=  3 IA=    6   11.23% done.
 IPart=  4 IA=   11   21.79% done.
 IPart=  4 IA=   16   31.68% done.
 IPart=  2 IA=   21   40.90% done.
 IPart=  1 IA=   27   51.08% done.
 IPart=  3 IA=   33   60.30% done.
 IPart=  3 IA=   41   71.10% done.
 IPart=  2 IA=   49   80.19% done.
 IPart=  3 IA=   61   90.62% done.
 Time for triples=        6.51 seconds.
 T4(CCSD)= -0.92993799D-02
 T5(CCSD)=  0.34777283D-03
 CCSD(T)= -0.76339825294D+02
 Discarding MO integrals.
 Leave Link  913 at Wed Feb  8 13:56:28 2023, MaxMem=   754974720 cpu:              12.9 elap:               3.2
 (Enter /opt/cluster/programs/g16-c.01/g16/l601.exe)
 Copying SCF densities to generalized density rwf, IOpCl= 0 IROHF=0.

 **********************************************************************

            Population analysis using the SCF Density.

 **********************************************************************

 Orbital symmetries:
       Occupied  (A') (A') (A') (A') (A")
       Virtual   (A') (A') (A') (A") (A') (A') (A') (A') (A") (A")
                 (A') (A') (A') (A') (A') (A') (A') (A") (A") (A')
                 (A") (A') (A') (A") (A") (A') (A') (A') (A') (A")
                 (A') (A") (A') (A') (A') (A") (A") (A') (A') (A')
                 (A') (A") (A") (A') (A') (A") (A') (A') (A') (A")
                 (A') (A') (A") (A') (A') (A") (A") (A') (A") (A')
                 (A') (A") (A") (A') (A') (A') (A") (A') (A') (A')
                 (A") (A') (A') (A') (A") (A') (A") (A') (A") (A")
                 (A") (A') (A') (A') (A') (A') (A')
 The electronic state is 1-A'.
 Alpha  occ. eigenvalues --  -20.57437  -1.34503  -0.69212  -0.59131  -0.51010
 Alpha virt. eigenvalues --    0.02865   0.04797   0.13476   0.16070   0.17523
 Alpha virt. eigenvalues --    0.18462   0.22289   0.24468   0.26746   0.29327
 Alpha virt. eigenvalues --    0.30617   0.36585   0.43081   0.46196   0.59454
 Alpha virt. eigenvalues --    0.66231   0.70224   0.72798   0.73121   0.82908
 Alpha virt. eigenvalues --    0.85071   0.89837   0.90668   0.91302   0.92201
 Alpha virt. eigenvalues --    0.93372   0.94895   1.00860   1.03875   1.07648
 Alpha virt. eigenvalues --    1.10098   1.17559   1.18273   1.27263   1.49559
 Alpha virt. eigenvalues --    1.49871   1.55807   1.82304   1.84677   1.93287
 Alpha virt. eigenvalues --    2.11399   2.26277   2.31064   2.33330   2.41493
 Alpha virt. eigenvalues --    2.41900   2.43729   2.50288   2.68953   2.69958
 Alpha virt. eigenvalues --    2.75648   2.78236   2.86927   3.60576   3.67673
 Alpha virt. eigenvalues --    4.02881   4.05564   4.07749   4.20387   4.24469
 Alpha virt. eigenvalues --    4.34399   4.36478   4.39397   4.52165   4.70190
 Alpha virt. eigenvalues --    4.80242   5.06180   5.13499   5.18950   5.26562
 Alpha virt. eigenvalues --    5.48477   5.56712   6.20260   6.49193   6.69949
 Alpha virt. eigenvalues --    6.91421   7.07548   7.15872   7.23918   7.29500
 Alpha virt. eigenvalues --    7.33907   7.37004   7.46836   7.78893   7.90724
 Alpha virt. eigenvalues --    8.71028  15.07523
          Condensed to atoms (all electrons):
               1          2          3
     1  O    7.954529   0.261094   0.259177
     2  H    0.261094   0.453465   0.029971
     3  H    0.259177   0.029971   0.491523
 Mulliken charges:
               1
     1  O   -0.474799
     2  H    0.255471
     3  H    0.219329
 Sum of Mulliken charges =   0.00000
 Mulliken charges with hydrogens summed into heavy atoms:
               1
     1  O    0.000000
 Electronic spatial extent (au):  <R**2>=             19.8137
 Charge=              0.0000 electrons
 Dipole moment (field-independent basis, Debye):
    X=             -0.0258    Y=             -2.1032    Z=             -0.0000  Tot=              2.1033
 Quadrupole moment (field-independent basis, Debye-Ang):
   XX=             -4.4686   YY=             -6.0592   ZZ=             -7.6091
   XY=             -0.1189   XZ=              0.0000   YZ=             -0.0000
 Traceless Quadrupole moment (field-independent basis, Debye-Ang):
   XX=              1.5770   YY=             -0.0136   ZZ=             -1.5635
   XY=             -0.1189   XZ=              0.0000   YZ=             -0.0000
 Octapole moment (field-independent basis, Debye-Ang**2):
  XXX=             -0.0787  YYY=             -1.2576  ZZZ=             -0.0000  XYY=              0.0984
  XXY=             -1.4523  XXZ=             -0.0000  XZZ=             -0.0266  YZZ=             -0.2480
  YYZ=             -0.0000  XYZ=             -0.0000
 Hexadecapole moment (field-independent basis, Debye-Ang**3):
 XXXX=             -6.3392 YYYY=             -7.4632 ZZZZ=             -6.7829 XXXY=              0.0246
 XXXZ=             -0.0000 YYYX=             -0.0112 YYYZ=             -0.0000 ZZZX=             -0.0000
 ZZZY=             -0.0000 XXYY=             -1.8319 XXZZ=             -2.4849 YYZZ=             -2.4482
 XXYZ=             -0.0000 YYXZ=             -0.0000 ZZXY=              0.0369
 N-N= 8.965054518288D+00 E-N=-1.984867635750D+02  KE= 7.587169606493D+01
 Symmetry A'   KE= 7.139407975541D+01
 Symmetry A"   KE= 4.477616309517D+00
 Leave Link  601 at Wed Feb  8 13:56:28 2023, MaxMem=   754974720 cpu:               0.1 elap:               0.0
 (Enter /opt/cluster/programs/g16-c.01/g16/l9999.exe)
 Unable to Open any file for archive entry.
 1\1\GINC-NODE65\SP\RCCSD(T)-FC\Aug-CC-pVTZ\H2O1\BOITTIER\08-Feb-2023\0
 \\#P CCSD(T)/aug-cc-pVTZ scf(maxcycle=200)\\Gaussian input\\0,1\O,0,0.
 ,0.11751,0.\H,0,0.7973622306,-0.5007896629,0.\H,0,-0.6926442659,-0.545
 7583627,0.\\Version=ES64L-G16RevC.01\State=1-A'\HF=-76.0554117\MP2=-76
 .3264942\MP3=-76.3285453\MP4D=-76.3335368\MP4DQ=-76.3293372\MP4SDQ=-76
 .331387\CCSD=-76.3308737\CCSD(T)=-76.3398253\RMSD=4.745e-09\PG=CS [SG(
 H2O1)]\\@
 The archive entry for this job was punched.


 UNLESS WE CHANGE DIRECTIONS, WE WILL WIND UP WHERE WE ARE HEADED.
     -- CONFUCIUS
 Job cpu time:       0 days  0 hours  0 minutes 20.5 seconds.
 Elapsed time:       0 days  0 hours  0 minutes  5.4 seconds.
 File lengths (MBytes):  RWF=     75 Int=      0 D2E=      0 Chk=      2 Scr=      1
 Normal termination of Gaussian 16 at Wed Feb  8 13:56:28 2023.
