 Entering Gaussian System, Link 0=/opt/cluster/programs/g16-c.01/g16/g16
 Input=/scratch/boittier/jobs/tmp.7425319/gaussian_53_water_pbe0_dz.com
 Output=/scratch/boittier/jobs/tmp.7425319/gaussian_53_water_pbe0_dz.out
 Initial command:
 /opt/cluster/programs/g16-c.01/g16/l1.exe "/scratch/boittier/jobs/tmp.7425319/Gau-1484.inp" -scrdir="/scratch/boittier/jobs/tmp.7425319/"
 Entering Link 1 = /opt/cluster/programs/g16-c.01/g16/l1.exe PID=      1486.
  
 Copyright (c) 1988-2019, Gaussian, Inc.  All Rights Reserved.
  
 This is part of the Gaussian(R) 16 program.  It is based on
 the Gaussian(R) 09 system (copyright 2009, Gaussian, Inc.),
 the Gaussian(R) 03 system (copyright 2003, Gaussian, Inc.),
 the Gaussian(R) 98 system (copyright 1998, Gaussian, Inc.),
 the Gaussian(R) 94 system (copyright 1995, Gaussian, Inc.),
 the Gaussian 92(TM) system (copyright 1992, Gaussian, Inc.),
 the Gaussian 90(TM) system (copyright 1990, Gaussian, Inc.),
 the Gaussian 88(TM) system (copyright 1988, Gaussian, Inc.),
 the Gaussian 86(TM) system (copyright 1986, Carnegie Mellon
 University), and the Gaussian 82(TM) system (copyright 1983,
 Carnegie Mellon University). Gaussian is a federally registered
 trademark of Gaussian, Inc.
  
 This software contains proprietary and confidential information,
 including trade secrets, belonging to Gaussian, Inc.
  
 This software is provided under written license and may be
 used, copied, transmitted, or stored only in accord with that
 written license.
  
 The following legend is applicable only to US Government
 contracts under FAR:
  
                    RESTRICTED RIGHTS LEGEND
  
 Use, reproduction and disclosure by the US Government is
 subject to restrictions as set forth in subparagraphs (a)
 and (c) of the Commercial Computer Software - Restricted
 Rights clause in FAR 52.227-19.
  
 Gaussian, Inc.
 340 Quinnipiac St., Bldg. 40, Wallingford CT 06492
  
  
 ---------------------------------------------------------------
 Warning -- This program may not be used in any manner that
 competes with the business of Gaussian, Inc. or will provide
 assistance to any competitor of Gaussian, Inc.  The licensee
 of this program is prohibited from giving any competitor of
 Gaussian, Inc. access to this program.  By using this program,
 the user acknowledges that Gaussian, Inc. is engaged in the
 business of creating and licensing software in the field of
 computational chemistry and represents and warrants to the
 licensee that it is not a competitor of Gaussian, Inc. and that
 it will not use this program in any manner prohibited above.
 ---------------------------------------------------------------
  

 Cite this work as:
 Gaussian 16, Revision C.01,
 M. J. Frisch, G. W. Trucks, H. B. Schlegel, G. E. Scuseria, 
 M. A. Robb, J. R. Cheeseman, G. Scalmani, V. Barone, 
 G. A. Petersson, H. Nakatsuji, X. Li, M. Caricato, A. V. Marenich, 
 J. Bloino, B. G. Janesko, R. Gomperts, B. Mennucci, H. P. Hratchian, 
 J. V. Ortiz, A. F. Izmaylov, J. L. Sonnenberg, D. Williams-Young, 
 F. Ding, F. Lipparini, F. Egidi, J. Goings, B. Peng, A. Petrone, 
 T. Henderson, D. Ranasinghe, V. G. Zakrzewski, J. Gao, N. Rega, 
 G. Zheng, W. Liang, M. Hada, M. Ehara, K. Toyota, R. Fukuda, 
 J. Hasegawa, M. Ishida, T. Nakajima, Y. Honda, O. Kitao, H. Nakai, 
 T. Vreven, K. Throssell, J. A. Montgomery, Jr., J. E. Peralta, 
 F. Ogliaro, M. J. Bearpark, J. J. Heyd, E. N. Brothers, K. N. Kudin, 
 V. N. Staroverov, T. A. Keith, R. Kobayashi, J. Normand, 
 K. Raghavachari, A. P. Rendell, J. C. Burant, S. S. Iyengar, 
 J. Tomasi, M. Cossi, J. M. Millam, M. Klene, C. Adamo, R. Cammi, 
 J. W. Ochterski, R. L. Martin, K. Morokuma, O. Farkas, 
 J. B. Foresman, and D. J. Fox, Gaussian, Inc., Wallingford CT, 2019.
 
 ******************************************
 Gaussian 16:  ES64L-G16RevC.01  3-Jul-2019
                20-Mar-2023 
 ******************************************
 %nproc=4
 Will use up to    4 processors via shared memory.
 %mem=5760MB
 %chk=gaussian_53_water_pbe0_dz.chk
 ----------------------------------------
 #P PBE1PBE/aug-cc-pVDZ scf(maxcycle=200)
 ----------------------------------------
 1/38=1,172=1/1;
 2/12=2,17=6,18=5,40=1/2;
 3/5=16,7=10,11=2,25=1,30=1,74=-13/1,2,3;
 4//1;
 5/5=2,7=200,38=5/2;
 6/7=2,8=2,9=2,10=2,28=1/1;
 99/5=1,9=1/99;
 Leave Link    1 at Mon Mar 20 17:33:46 2023, MaxMem=   754974720 cpu:               0.1 elap:               0.0
 (Enter /opt/cluster/programs/g16-c.01/g16/l101.exe)
 --------------
 Gaussian input
 --------------
 Symbolic Z-matrix:
 Charge =  0 Multiplicity = 1
 O                     0.        0.11751   0. 
 H                     0.71834  -0.43951   0. 
 H                    -0.85792  -0.41357   0. 
 
 ITRead=  0  0  0
 MicOpt= -1 -1 -1
 NAtoms=      3 NQM=        3 NQMF=       0 NMMI=      0 NMMIF=      0
                NMic=       0 NMicF=      0.
                    Isotopes and Nuclear Properties:
 (Nuclear quadrupole moments (NQMom) in fm**2, nuclear magnetic moments (NMagM)
  in nuclear magnetons)

  Atom         1           2           3
 IAtWgt=          16           1           1
 AtmWgt=  15.9949146   1.0078250   1.0078250
 NucSpn=           0           1           1
 AtZEff=  -0.0000000  -0.0000000  -0.0000000
 NQMom=    0.0000000   0.0000000   0.0000000
 NMagM=    0.0000000   2.7928460   2.7928460
 AtZNuc=   8.0000000   1.0000000   1.0000000
 Leave Link  101 at Mon Mar 20 17:33:46 2023, MaxMem=   754974720 cpu:               0.6 elap:               0.2
 (Enter /opt/cluster/programs/g16-c.01/g16/l202.exe)
                          Input orientation:                          
 ---------------------------------------------------------------------
 Center     Atomic      Atomic             Coordinates (Angstroms)
 Number     Number       Type             X           Y           Z
 ---------------------------------------------------------------------
      1          8           0        0.000000    0.117510    0.000000
      2          1           0        0.718337   -0.439511    0.000000
      3          1           0       -0.857923   -0.413573    0.000000
 ---------------------------------------------------------------------
                    Distance matrix (angstroms):
                    1          2          3
     1  O    0.000000
     2  H    0.909000   0.000000
     3  H    1.009000   1.576474   0.000000
 Stoichiometry    H2O
 Framework group  CS[SG(H2O)]
 Deg. of freedom     3
 Full point group                 CS      NOp   2
 Largest Abelian subgroup         CS      NOp   2
 Largest concise Abelian subgroup C1      NOp   1
                         Standard orientation:                         
 ---------------------------------------------------------------------
 Center     Atomic      Atomic             Coordinates (Angstroms)
 Number     Number       Type             X           Y           Z
 ---------------------------------------------------------------------
      1          8           0        0.000000    0.109702    0.000000
      2          1           0        0.783374   -0.351390    0.000000
      3          1           0       -0.783374   -0.526227    0.000000
 ---------------------------------------------------------------------
 Rotational constants (GHZ):         958.7411740         399.8892821         282.1888160
 Leave Link  202 at Mon Mar 20 17:33:46 2023, MaxMem=   754974720 cpu:               0.1 elap:               0.0
 (Enter /opt/cluster/programs/g16-c.01/g16/l301.exe)
 Standard basis: Aug-CC-pVDZ (5D, 7F)
 Ernie: Thresh=  0.10000D-02 Tol=  0.10000D-05 Strict=F.
 Ernie:  2 primitive shells out of 39 were deleted.
 There are    32 symmetry adapted cartesian basis functions of A'  symmetry.
 There are    11 symmetry adapted cartesian basis functions of A"  symmetry.
 There are    30 symmetry adapted basis functions of A'  symmetry.
 There are    11 symmetry adapted basis functions of A"  symmetry.
    41 basis functions,    65 primitive gaussians,    43 cartesian basis functions
     5 alpha electrons        5 beta electrons
       nuclear repulsion energy         9.1885533949 Hartrees.
 IExCor= 1009 DFT=T Ex+Corr=PBE1PBE ExCW=0 ScaHFX=  0.250000
 ScaDFX=  0.750000  0.750000  1.000000  1.000000 ScalE2=  1.000000  1.000000
 IRadAn=      5 IRanWt=     -1 IRanGd=            0 ICorTp=0 IEmpDi=  4
 NAtoms=    3 NActive=    3 NUniq=    3 SFac= 1.00D+00 NAtFMM=   60 NAOKFM=F Big=F
 Integral buffers will be    131072 words long.
 Raffenetti 2 integral format.
 Two-electron integral symmetry is turned on.
 Leave Link  301 at Mon Mar 20 17:33:46 2023, MaxMem=   754974720 cpu:               0.1 elap:               0.0
 (Enter /opt/cluster/programs/g16-c.01/g16/l302.exe)
 NPDir=0 NMtPBC=     1 NCelOv=     1 NCel=       1 NClECP=     1 NCelD=      1
         NCelK=      1 NCelE2=     1 NClLst=     1 CellRange=     0.0.
 One-electron integrals computed using PRISM.
 One-electron integral symmetry used in STVInt
 NBasis=    41 RedAO= T EigKep=  2.68D-03  NBF=    30    11
 NBsUse=    41 1.00D-06 EigRej= -1.00D+00 NBFU=    30    11
 Precomputing XC quadrature grid using
 IXCGrd= 4 IRadAn=           5 IRanWt=          -1 IRanGd=           0 AccXCQ= 0.00D+00.
 Generated NRdTot=       0 NPtTot=           0 NUsed=           0 NTot=          32
 NSgBfM=    43    43    43    43    43 MxSgAt=     3 MxSgA2=     3.
 Leave Link  302 at Mon Mar 20 17:33:47 2023, MaxMem=   754974720 cpu:               0.5 elap:               0.1
 (Enter /opt/cluster/programs/g16-c.01/g16/l303.exe)
 DipDrv:  MaxL=1.
 Leave Link  303 at Mon Mar 20 17:33:47 2023, MaxMem=   754974720 cpu:               0.1 elap:               0.0
 (Enter /opt/cluster/programs/g16-c.01/g16/l401.exe)
 ExpMin= 2.97D-02 ExpMax= 1.17D+04 ExpMxC= 4.01D+02 IAcc=3 IRadAn=         5 AccDes= 0.00D+00
 Harris functional with IExCor= 1009 and IRadAn=       5 diagonalized for initial guess.
 HarFok:  IExCor= 1009 AccDes= 0.00D+00 IRadAn=         5 IDoV= 1 UseB2=F ITyADJ=14
 ICtDFT=  3500011 ScaDFX=  1.000000  1.000000  1.000000  1.000000
 FoFCou: FMM=F IPFlag=           0 FMFlag=      100000 FMFlg1=           0
         NFxFlg=           0 DoJE=T BraDBF=F KetDBF=T FulRan=T
         wScrn=  0.000000 ICntrl=       500 IOpCl=  0 I1Cent=   200000004 NGrid=           0
         NMat0=    1 NMatS0=      1 NMatT0=    0 NMatD0=    1 NMtDS0=    0 NMtDT0=    0
 Petite list used in FoFCou.
 Harris En= -76.3946049318554    
 JPrj=0 DoOrth=F DoCkMO=F.
 Initial guess orbital symmetries:
       Occupied  (A') (A') (A') (A') (A")
       Virtual   (A') (A') (A') (A") (A') (A') (A') (A') (A") (A')
                 (A") (A') (A') (A') (A') (A') (A") (A') (A") (A')
                 (A") (A') (A') (A') (A") (A") (A') (A') (A') (A')
                 (A') (A") (A') (A") (A') (A')
 The electronic state of the initial guess is 1-A'.
 Leave Link  401 at Mon Mar 20 17:33:47 2023, MaxMem=   754974720 cpu:               1.1 elap:               0.4
 (Enter /opt/cluster/programs/g16-c.01/g16/l502.exe)
 Keep R1 ints in memory in symmetry-blocked form, NReq=3831793.
 FoFCou: FMM=F IPFlag=           0 FMFlag=           0 FMFlg1=           0
         NFxFlg=           0 DoJE=F BraDBF=F KetDBF=F FulRan=T
         wScrn=  0.000000 ICntrl=       600 IOpCl=  0 I1Cent=           0 NGrid=           0
         NMat0=    1 NMatS0=    861 NMatT0=    0 NMatD0=    1 NMtDS0=    0 NMtDT0=    0
 Petite list used in FoFCou.
 Closed shell SCF:
 Using DIIS extrapolation, IDIIS=  1040.
 NGot=   754974720 LenX=   754771907 LenY=   754769617
 Requested convergence on RMS density matrix=1.00D-08 within 200 cycles.
 Requested convergence on MAX density matrix=1.00D-06.
 Requested convergence on             energy=1.00D-06.
 No special actions if energy rises.

 Cycle   1  Pass 1  IDiag  1:
 E= -76.2839183811777    
 DIIS: error= 5.37D-02 at cycle   1 NSaved=   1.
 NSaved= 1 IEnMin= 1 EnMin= -76.2839183811777     IErMin= 1 ErrMin= 5.37D-02
 ErrMax= 5.37D-02  0.00D+00 EMaxC= 1.00D-01 BMatC= 9.15D-02 BMatP= 9.15D-02
 IDIUse=3 WtCom= 4.63D-01 WtEn= 5.37D-01
 Coeff-Com:  0.100D+01
 Coeff-En:   0.100D+01
 Coeff:      0.100D+01
 Gap=     0.173 Goal=   None    Shift=    0.000
 GapD=    0.173 DampG=1.000 DampE=0.500 DampFc=0.5000 IDamp=-1.
 Damping current iteration by 5.00D-01
 RMSDP=1.01D-02 MaxDP=1.65D-01              OVMax= 2.07D-01

 Cycle   2  Pass 1  IDiag  1:
 E= -76.3013202673117     Delta-E=       -0.017401886134 Rises=F Damp=T
 DIIS: error= 1.80D-02 at cycle   2 NSaved=   2.
 NSaved= 2 IEnMin= 2 EnMin= -76.3013202673117     IErMin= 2 ErrMin= 1.80D-02
 ErrMax= 1.80D-02  0.00D+00 EMaxC= 1.00D-01 BMatC= 8.53D-03 BMatP= 9.15D-02
 IDIUse=3 WtCom= 8.20D-01 WtEn= 1.80D-01
 Coeff-Com:  0.222D+00 0.778D+00
 Coeff-En:   0.375D+00 0.625D+00
 Coeff:      0.250D+00 0.750D+00
 Gap=     0.309 Goal=   None    Shift=    0.000
 RMSDP=1.26D-03 MaxDP=1.63D-02 DE=-1.74D-02 OVMax= 1.31D-01

 Cycle   3  Pass 1  IDiag  1:
 E= -76.3539374226489     Delta-E=       -0.052617155337 Rises=F Damp=F
 DIIS: error= 1.34D-03 at cycle   3 NSaved=   3.
 NSaved= 3 IEnMin= 3 EnMin= -76.3539374226489     IErMin= 3 ErrMin= 1.34D-03
 ErrMax= 1.34D-03  0.00D+00 EMaxC= 1.00D-01 BMatC= 7.12D-05 BMatP= 8.53D-03
 IDIUse=3 WtCom= 9.87D-01 WtEn= 1.34D-02
 Coeff-Com:  0.197D-01-0.174D-01 0.998D+00
 Coeff-En:   0.000D+00 0.000D+00 0.100D+01
 Coeff:      0.195D-01-0.171D-01 0.998D+00
 Gap=     0.319 Goal=   None    Shift=    0.000
 RMSDP=1.47D-04 MaxDP=1.76D-03 DE=-5.26D-02 OVMax= 1.83D-03

 Cycle   4  Pass 1  IDiag  1:
 E= -76.3539828848958     Delta-E=       -0.000045462247 Rises=F Damp=F
 DIIS: error= 2.61D-04 at cycle   4 NSaved=   4.
 NSaved= 4 IEnMin= 4 EnMin= -76.3539828848958     IErMin= 4 ErrMin= 2.61D-04
 ErrMax= 2.61D-04  0.00D+00 EMaxC= 1.00D-01 BMatC= 3.68D-06 BMatP= 7.12D-05
 IDIUse=3 WtCom= 9.97D-01 WtEn= 2.61D-03
 Coeff-Com:  0.419D-02-0.175D-01 0.239D+00 0.774D+00
 Coeff-En:   0.000D+00 0.000D+00 0.000D+00 0.100D+01
 Coeff:      0.418D-02-0.175D-01 0.239D+00 0.775D+00
 Gap=     0.320 Goal=   None    Shift=    0.000
 RMSDP=2.07D-05 MaxDP=2.85D-04 DE=-4.55D-05 OVMax= 4.50D-04

 Cycle   5  Pass 1  IDiag  1:
 E= -76.3539852858613     Delta-E=       -0.000002400965 Rises=F Damp=F
 DIIS: error= 9.91D-05 at cycle   5 NSaved=   5.
 NSaved= 5 IEnMin= 5 EnMin= -76.3539852858613     IErMin= 5 ErrMin= 9.91D-05
 ErrMax= 9.91D-05  0.00D+00 EMaxC= 1.00D-01 BMatC= 2.48D-07 BMatP= 3.68D-06
 IDIUse=1 WtCom= 1.00D+00 WtEn= 0.00D+00
 Coeff-Com:  0.128D-02-0.222D-02 0.620D-02 0.528D-01 0.942D+00
 Coeff:      0.128D-02-0.222D-02 0.620D-02 0.528D-01 0.942D+00
 Gap=     0.320 Goal=   None    Shift=    0.000
 RMSDP=6.80D-06 MaxDP=1.08D-04 DE=-2.40D-06 OVMax= 1.44D-04

 Cycle   6  Pass 1  IDiag  1:
 E= -76.3539854782759     Delta-E=       -0.000000192415 Rises=F Damp=F
 DIIS: error= 6.81D-06 at cycle   6 NSaved=   6.
 NSaved= 6 IEnMin= 6 EnMin= -76.3539854782759     IErMin= 6 ErrMin= 6.81D-06
 ErrMax= 6.81D-06  0.00D+00 EMaxC= 1.00D-01 BMatC= 1.33D-09 BMatP= 2.48D-07
 IDIUse=1 WtCom= 1.00D+00 WtEn= 0.00D+00
 Coeff-Com:  0.263D-03-0.405D-03-0.934D-05 0.292D-02 0.178D+00 0.819D+00
 Coeff:      0.263D-03-0.405D-03-0.934D-05 0.292D-02 0.178D+00 0.819D+00
 Gap=     0.320 Goal=   None    Shift=    0.000
 RMSDP=6.43D-07 MaxDP=8.16D-06 DE=-1.92D-07 OVMax= 1.18D-05

 Cycle   7  Pass 1  IDiag  1:
 E= -76.3539854793607     Delta-E=       -0.000000001085 Rises=F Damp=F
 DIIS: error= 9.83D-07 at cycle   7 NSaved=   7.
 NSaved= 7 IEnMin= 7 EnMin= -76.3539854793607     IErMin= 7 ErrMin= 9.83D-07
 ErrMax= 9.83D-07  0.00D+00 EMaxC= 1.00D-01 BMatC= 4.15D-11 BMatP= 1.33D-09
 IDIUse=1 WtCom= 1.00D+00 WtEn= 0.00D+00
 Coeff-Com: -0.303D-04 0.459D-04-0.192D-03-0.266D-02-0.314D-01 0.122D+00
 Coeff-Com:  0.912D+00
 Coeff:     -0.303D-04 0.459D-04-0.192D-03-0.266D-02-0.314D-01 0.122D+00
 Coeff:      0.912D+00
 Gap=     0.320 Goal=   None    Shift=    0.000
 RMSDP=1.25D-07 MaxDP=1.76D-06 DE=-1.08D-09 OVMax= 2.68D-06

 Cycle   8  Pass 1  IDiag  1:
 E= -76.3539854793976     Delta-E=       -0.000000000037 Rises=F Damp=F
 DIIS: error= 9.71D-08 at cycle   8 NSaved=   8.
 NSaved= 8 IEnMin= 8 EnMin= -76.3539854793976     IErMin= 8 ErrMin= 9.71D-08
 ErrMax= 9.71D-08  0.00D+00 EMaxC= 1.00D-01 BMatC= 3.06D-13 BMatP= 4.15D-11
 IDIUse=1 WtCom= 1.00D+00 WtEn= 0.00D+00
 Coeff-Com: -0.159D-05 0.268D-05-0.123D-04 0.107D-03 0.601D-03-0.877D-02
 Coeff-Com: -0.598D-01 0.107D+01
 Coeff:     -0.159D-05 0.268D-05-0.123D-04 0.107D-03 0.601D-03-0.877D-02
 Coeff:     -0.598D-01 0.107D+01
 Gap=     0.320 Goal=   None    Shift=    0.000
 RMSDP=1.09D-08 MaxDP=2.14D-07 DE=-3.69D-11 OVMax= 3.76D-07

 Cycle   9  Pass 1  IDiag  1:
 E= -76.3539854793980     Delta-E=       -0.000000000000 Rises=F Damp=F
 DIIS: error= 7.31D-09 at cycle   9 NSaved=   9.
 NSaved= 9 IEnMin= 9 EnMin= -76.3539854793980     IErMin= 9 ErrMin= 7.31D-09
 ErrMax= 7.31D-09  0.00D+00 EMaxC= 1.00D-01 BMatC= 1.29D-15 BMatP= 3.06D-13
 IDIUse=1 WtCom= 1.00D+00 WtEn= 0.00D+00
 Coeff-Com:  0.238D-06-0.316D-06 0.794D-06 0.223D-04 0.337D-03-0.121D-02
 Coeff-Com: -0.838D-02 0.294D-02 0.101D+01
 Coeff:      0.238D-06-0.316D-06 0.794D-06 0.223D-04 0.337D-03-0.121D-02
 Coeff:     -0.838D-02 0.294D-02 0.101D+01
 Gap=     0.320 Goal=   None    Shift=    0.000
 RMSDP=9.84D-10 MaxDP=1.75D-08 DE=-4.26D-13 OVMax= 2.95D-08

 SCF Done:  E(RPBE1PBE) =  -76.3539854794     A.U. after    9 cycles
            NFock=  9  Conv=0.98D-09     -V/T= 2.0053
 KE= 7.595203342058D+01 PE=-1.989017957197D+02 EE= 3.740722342484D+01
 Leave Link  502 at Mon Mar 20 17:33:48 2023, MaxMem=   754974720 cpu:               2.3 elap:               0.6
 (Enter /opt/cluster/programs/g16-c.01/g16/l601.exe)
 Copying SCF densities to generalized density rwf, IOpCl= 0 IROHF=0.

 **********************************************************************

            Population analysis using the SCF Density.

 **********************************************************************

 Orbital symmetries:
       Occupied  (A') (A') (A') (A') (A")
       Virtual   (A') (A') (A') (A") (A') (A') (A') (A') (A") (A')
                 (A") (A') (A') (A') (A') (A') (A") (A') (A") (A')
                 (A") (A') (A') (A') (A") (A") (A') (A') (A') (A')
                 (A') (A") (A') (A") (A') (A')
 The electronic state is 1-A'.
 Alpha  occ. eigenvalues --  -19.22761  -1.04619  -0.56227  -0.40003  -0.33203
 Alpha virt. eigenvalues --   -0.01213   0.03201   0.11211   0.13116   0.13841
 Alpha virt. eigenvalues --    0.16600   0.19553   0.23198   0.28738   0.31695
 Alpha virt. eigenvalues --    0.34398   0.44717   0.50767   0.54689   0.65486
 Alpha virt. eigenvalues --    0.73954   0.91105   0.92015   0.96407   1.11908
 Alpha virt. eigenvalues --    1.22432   1.23683   1.34367   1.74232   1.77636
 Alpha virt. eigenvalues --    1.85605   2.10484   2.18517   2.34036   2.45884
 Alpha virt. eigenvalues --    2.62143   3.29719   3.31198   3.33764   3.66167
 Alpha virt. eigenvalues --    3.92726
          Condensed to atoms (all electrons):
               1          2          3
     1  O    7.576660   0.341861   0.315553
     2  H    0.341861   0.664531  -0.068944
     3  H    0.315553  -0.068944   0.581867
 Mulliken charges:
               1
     1  O   -0.234075
     2  H    0.062552
     3  H    0.171523
 Sum of Mulliken charges =  -0.00000
 Mulliken charges with hydrogens summed into heavy atoms:
               1
     1  O   -0.000000
 Electronic spatial extent (au):  <R**2>=             19.9683
 Charge=             -0.0000 electrons
 Dipole moment (field-independent basis, Debye):
    X=              0.0408    Y=             -1.7795    Z=              0.0000  Tot=              1.7799
 Quadrupole moment (field-independent basis, Debye-Ang):
   XX=             -4.2485   YY=             -6.5705   ZZ=             -7.7583
   XY=              0.3131   XZ=              0.0000   YZ=              0.0000
 Traceless Quadrupole moment (field-independent basis, Debye-Ang):
   XX=              1.9439   YY=             -0.3781   ZZ=             -1.5659
   XY=              0.3131   XZ=              0.0000   YZ=              0.0000
 Octapole moment (field-independent basis, Debye-Ang**2):
  XXX=              0.1251  YYY=             -0.9497  ZZZ=              0.0000  XYY=             -0.1867
  XXY=             -1.2833  XXZ=              0.0000  XZZ=              0.0583  YZZ=             -0.2249
  YYZ=              0.0000  XYZ=              0.0000
 Hexadecapole moment (field-independent basis, Debye-Ang**3):
 XXXX=             -6.4488 YYYY=             -8.0413 ZZZZ=             -7.6814 XXXY=              0.0425
 XXXZ=              0.0000 YYYX=             -0.0170 YYYZ=              0.0000 ZZZX=              0.0000
 ZZZY=              0.0000 XXYY=             -2.1986 XXZZ=             -2.7246 YYZZ=             -2.6648
 XXYZ=              0.0000 YYXZ=              0.0000 ZZXY=             -0.0712
 N-N= 9.188553394879D+00 E-N=-1.989017954809D+02  KE= 7.595203342058D+01
 Symmetry A'   KE= 7.151538972547D+01
 Symmetry A"   KE= 4.436643695109D+00
 No NMR shielding tensors so no spin-rotation constants.
 Leave Link  601 at Mon Mar 20 17:33:48 2023, MaxMem=   754974720 cpu:               0.5 elap:               0.1
 (Enter /opt/cluster/programs/g16-c.01/g16/l9999.exe)
 Unable to Open any file for archive entry.
 1\1\GINC-NODE59\SP\RPBE1PBE\Aug-CC-pVDZ\H2O1\BOITTIER\20-Mar-2023\0\\#
 P PBE1PBE/aug-cc-pVDZ scf(maxcycle=200)\\Gaussian input\\0,1\O,0,0.,0.
 11751,0.\H,0,0.7183372325,-0.4395112028,0.\H,0,-0.8579231071,-0.413572
 8017,0.\\Version=ES64L-G16RevC.01\State=1-A'\HF=-76.3539855\RMSD=9.840
 e-10\Dipole=-0.0731754,-0.6964422,0.\Quadrupole=1.4760768,-0.3118895,-
 1.1641873,0.0073725,0.,0.\PG=CS [SG(H2O1)]\\@
 The archive entry for this job was punched.


 GETTING A SIMPLE ANSWER FROM A PROFESSOR IS LIKE
 GETTING A THIMBLE OF WATER FROM A FIRE HYDRANT.
     -- PROF. LEN SHAPIRO, NDSU
 Job cpu time:       0 days  0 hours  0 minutes  5.7 seconds.
 Elapsed time:       0 days  0 hours  0 minutes  1.6 seconds.
 File lengths (MBytes):  RWF=      6 Int=      0 D2E=      0 Chk=      1 Scr=      1
 Normal termination of Gaussian 16 at Mon Mar 20 17:33:48 2023.
