 Entering Gaussian System, Link 0=/opt/cluster/programs/g16-c.01/g16/g16
 Input=/scratch/boittier/jobs/tmp.7425386/gaussian_106_water_pbe0_dz.com
 Output=/scratch/boittier/jobs/tmp.7425386/gaussian_106_water_pbe0_dz.out
 Initial command:
 /opt/cluster/programs/g16-c.01/g16/l1.exe "/scratch/boittier/jobs/tmp.7425386/Gau-62421.inp" -scrdir="/scratch/boittier/jobs/tmp.7425386/"
 Entering Link 1 = /opt/cluster/programs/g16-c.01/g16/l1.exe PID=     62422.
  
 Copyright (c) 1988-2019, Gaussian, Inc.  All Rights Reserved.
  
 This is part of the Gaussian(R) 16 program.  It is based on
 the Gaussian(R) 09 system (copyright 2009, Gaussian, Inc.),
 the Gaussian(R) 03 system (copyright 2003, Gaussian, Inc.),
 the Gaussian(R) 98 system (copyright 1998, Gaussian, Inc.),
 the Gaussian(R) 94 system (copyright 1995, Gaussian, Inc.),
 the Gaussian 92(TM) system (copyright 1992, Gaussian, Inc.),
 the Gaussian 90(TM) system (copyright 1990, Gaussian, Inc.),
 the Gaussian 88(TM) system (copyright 1988, Gaussian, Inc.),
 the Gaussian 86(TM) system (copyright 1986, Carnegie Mellon
 University), and the Gaussian 82(TM) system (copyright 1983,
 Carnegie Mellon University). Gaussian is a federally registered
 trademark of Gaussian, Inc.
  
 This software contains proprietary and confidential information,
 including trade secrets, belonging to Gaussian, Inc.
  
 This software is provided under written license and may be
 used, copied, transmitted, or stored only in accord with that
 written license.
  
 The following legend is applicable only to US Government
 contracts under FAR:
  
                    RESTRICTED RIGHTS LEGEND
  
 Use, reproduction and disclosure by the US Government is
 subject to restrictions as set forth in subparagraphs (a)
 and (c) of the Commercial Computer Software - Restricted
 Rights clause in FAR 52.227-19.
  
 Gaussian, Inc.
 340 Quinnipiac St., Bldg. 40, Wallingford CT 06492
  
  
 ---------------------------------------------------------------
 Warning -- This program may not be used in any manner that
 competes with the business of Gaussian, Inc. or will provide
 assistance to any competitor of Gaussian, Inc.  The licensee
 of this program is prohibited from giving any competitor of
 Gaussian, Inc. access to this program.  By using this program,
 the user acknowledges that Gaussian, Inc. is engaged in the
 business of creating and licensing software in the field of
 computational chemistry and represents and warrants to the
 licensee that it is not a competitor of Gaussian, Inc. and that
 it will not use this program in any manner prohibited above.
 ---------------------------------------------------------------
  

 Cite this work as:
 Gaussian 16, Revision C.01,
 M. J. Frisch, G. W. Trucks, H. B. Schlegel, G. E. Scuseria, 
 M. A. Robb, J. R. Cheeseman, G. Scalmani, V. Barone, 
 G. A. Petersson, H. Nakatsuji, X. Li, M. Caricato, A. V. Marenich, 
 J. Bloino, B. G. Janesko, R. Gomperts, B. Mennucci, H. P. Hratchian, 
 J. V. Ortiz, A. F. Izmaylov, J. L. Sonnenberg, D. Williams-Young, 
 F. Ding, F. Lipparini, F. Egidi, J. Goings, B. Peng, A. Petrone, 
 T. Henderson, D. Ranasinghe, V. G. Zakrzewski, J. Gao, N. Rega, 
 G. Zheng, W. Liang, M. Hada, M. Ehara, K. Toyota, R. Fukuda, 
 J. Hasegawa, M. Ishida, T. Nakajima, Y. Honda, O. Kitao, H. Nakai, 
 T. Vreven, K. Throssell, J. A. Montgomery, Jr., J. E. Peralta, 
 F. Ogliaro, M. J. Bearpark, J. J. Heyd, E. N. Brothers, K. N. Kudin, 
 V. N. Staroverov, T. A. Keith, R. Kobayashi, J. Normand, 
 K. Raghavachari, A. P. Rendell, J. C. Burant, S. S. Iyengar, 
 J. Tomasi, M. Cossi, J. M. Millam, M. Klene, C. Adamo, R. Cammi, 
 J. W. Ochterski, R. L. Martin, K. Morokuma, O. Farkas, 
 J. B. Foresman, and D. J. Fox, Gaussian, Inc., Wallingford CT, 2019.
 
 ******************************************
 Gaussian 16:  ES64L-G16RevC.01  3-Jul-2019
                20-Mar-2023 
 ******************************************
 %nproc=4
 Will use up to    4 processors via shared memory.
 %mem=5760MB
 %chk=gaussian_106_water_pbe0_dz.chk
 ----------------------------------------
 #P PBE1PBE/aug-cc-pVDZ scf(maxcycle=200)
 ----------------------------------------
 1/38=1,172=1/1;
 2/12=2,17=6,18=5,40=1/2;
 3/5=16,7=10,11=2,25=1,30=1,74=-13/1,2,3;
 4//1;
 5/5=2,7=200,38=5/2;
 6/7=2,8=2,9=2,10=2,28=1/1;
 99/5=1,9=1/99;
 Leave Link    1 at Mon Mar 20 17:34:37 2023, MaxMem=   754974720 cpu:               0.1 elap:               0.0
 (Enter /opt/cluster/programs/g16-c.01/g16/l101.exe)
 --------------
 Gaussian input
 --------------
 Symbolic Z-matrix:
 Charge =  0 Multiplicity = 1
 O                     0.        0.11751   0. 
 H                     0.75785  -0.47015   0. 
 H                    -0.70396  -0.60535   0. 
 
 ITRead=  0  0  0
 MicOpt= -1 -1 -1
 NAtoms=      3 NQM=        3 NQMF=       0 NMMI=      0 NMMIF=      0
                NMic=       0 NMicF=      0.
                    Isotopes and Nuclear Properties:
 (Nuclear quadrupole moments (NQMom) in fm**2, nuclear magnetic moments (NMagM)
  in nuclear magnetons)

  Atom         1           2           3
 IAtWgt=          16           1           1
 AtmWgt=  15.9949146   1.0078250   1.0078250
 NucSpn=           0           1           1
 AtZEff=  -0.0000000  -0.0000000  -0.0000000
 NQMom=    0.0000000   0.0000000   0.0000000
 NMagM=    0.0000000   2.7928460   2.7928460
 AtZNuc=   8.0000000   1.0000000   1.0000000
 Leave Link  101 at Mon Mar 20 17:34:37 2023, MaxMem=   754974720 cpu:               0.7 elap:               0.2
 (Enter /opt/cluster/programs/g16-c.01/g16/l202.exe)
                          Input orientation:                          
 ---------------------------------------------------------------------
 Center     Atomic      Atomic             Coordinates (Angstroms)
 Number     Number       Type             X           Y           Z
 ---------------------------------------------------------------------
      1          8           0        0.000000    0.117510    0.000000
      2          1           0        0.757850   -0.470150    0.000000
      3          1           0       -0.703959   -0.605348    0.000000
 ---------------------------------------------------------------------
                    Distance matrix (angstroms):
                    1          2          3
     1  O    0.000000
     2  H    0.959000   0.000000
     3  H    1.009000   1.468047   0.000000
 Stoichiometry    H2O
 Framework group  CS[SG(H2O)]
 Deg. of freedom     3
 Full point group                 CS      NOp   2
 Largest Abelian subgroup         CS      NOp   2
 Largest concise Abelian subgroup C1      NOp   1
                         Standard orientation:                         
 ---------------------------------------------------------------------
 Center     Atomic      Atomic             Coordinates (Angstroms)
 Number     Number       Type             X           Y           Z
 ---------------------------------------------------------------------
      1          8           0        0.000000    0.131163    0.000000
      2          1           0        0.733064   -0.487140    0.000000
      3          1           0       -0.733064   -0.562161    0.000000
 ---------------------------------------------------------------------
 Rotational constants (GHZ):         662.2457004         462.4728409         272.3087059
 Leave Link  202 at Mon Mar 20 17:34:37 2023, MaxMem=   754974720 cpu:               0.1 elap:               0.0
 (Enter /opt/cluster/programs/g16-c.01/g16/l301.exe)
 Standard basis: Aug-CC-pVDZ (5D, 7F)
 Ernie: Thresh=  0.10000D-02 Tol=  0.10000D-05 Strict=F.
 Ernie:  2 primitive shells out of 39 were deleted.
 There are    32 symmetry adapted cartesian basis functions of A'  symmetry.
 There are    11 symmetry adapted cartesian basis functions of A"  symmetry.
 There are    30 symmetry adapted basis functions of A'  symmetry.
 There are    11 symmetry adapted basis functions of A"  symmetry.
    41 basis functions,    65 primitive gaussians,    43 cartesian basis functions
     5 alpha electrons        5 beta electrons
       nuclear repulsion energy         8.9705286230 Hartrees.
 IExCor= 1009 DFT=T Ex+Corr=PBE1PBE ExCW=0 ScaHFX=  0.250000
 ScaDFX=  0.750000  0.750000  1.000000  1.000000 ScalE2=  1.000000  1.000000
 IRadAn=      5 IRanWt=     -1 IRanGd=            0 ICorTp=0 IEmpDi=  4
 NAtoms=    3 NActive=    3 NUniq=    3 SFac= 1.00D+00 NAtFMM=   60 NAOKFM=F Big=F
 Integral buffers will be    131072 words long.
 Raffenetti 2 integral format.
 Two-electron integral symmetry is turned on.
 Leave Link  301 at Mon Mar 20 17:34:37 2023, MaxMem=   754974720 cpu:               0.2 elap:               0.1
 (Enter /opt/cluster/programs/g16-c.01/g16/l302.exe)
 NPDir=0 NMtPBC=     1 NCelOv=     1 NCel=       1 NClECP=     1 NCelD=      1
         NCelK=      1 NCelE2=     1 NClLst=     1 CellRange=     0.0.
 One-electron integrals computed using PRISM.
 One-electron integral symmetry used in STVInt
 NBasis=    41 RedAO= T EigKep=  2.55D-03  NBF=    30    11
 NBsUse=    41 1.00D-06 EigRej= -1.00D+00 NBFU=    30    11
 Precomputing XC quadrature grid using
 IXCGrd= 4 IRadAn=           5 IRanWt=          -1 IRanGd=           0 AccXCQ= 0.00D+00.
 Generated NRdTot=       0 NPtTot=           0 NUsed=           0 NTot=          32
 NSgBfM=    43    43    43    43    43 MxSgAt=     3 MxSgA2=     3.
 Leave Link  302 at Mon Mar 20 17:34:37 2023, MaxMem=   754974720 cpu:               0.5 elap:               0.2
 (Enter /opt/cluster/programs/g16-c.01/g16/l303.exe)
 DipDrv:  MaxL=1.
 Leave Link  303 at Mon Mar 20 17:34:37 2023, MaxMem=   754974720 cpu:               0.2 elap:               0.1
 (Enter /opt/cluster/programs/g16-c.01/g16/l401.exe)
 ExpMin= 2.97D-02 ExpMax= 1.17D+04 ExpMxC= 4.01D+02 IAcc=3 IRadAn=         5 AccDes= 0.00D+00
 Harris functional with IExCor= 1009 and IRadAn=       5 diagonalized for initial guess.
 HarFok:  IExCor= 1009 AccDes= 0.00D+00 IRadAn=         5 IDoV= 1 UseB2=F ITyADJ=14
 ICtDFT=  3500011 ScaDFX=  1.000000  1.000000  1.000000  1.000000
 FoFCou: FMM=F IPFlag=           0 FMFlag=      100000 FMFlg1=           0
         NFxFlg=           0 DoJE=T BraDBF=F KetDBF=T FulRan=T
         wScrn=  0.000000 ICntrl=       500 IOpCl=  0 I1Cent=   200000004 NGrid=           0
         NMat0=    1 NMatS0=      1 NMatT0=    0 NMatD0=    1 NMtDS0=    0 NMtDT0=    0
 Petite list used in FoFCou.
 Harris En= -76.3935429424761    
 JPrj=0 DoOrth=F DoCkMO=F.
 Initial guess orbital symmetries:
       Occupied  (A') (A') (A') (A') (A")
       Virtual   (A') (A') (A') (A") (A') (A') (A') (A') (A') (A")
                 (A") (A') (A') (A') (A') (A') (A") (A') (A") (A')
                 (A") (A') (A') (A") (A') (A") (A') (A') (A') (A')
                 (A') (A") (A') (A") (A') (A')
 The electronic state of the initial guess is 1-A'.
 Leave Link  401 at Mon Mar 20 17:34:38 2023, MaxMem=   754974720 cpu:               0.9 elap:               0.2
 (Enter /opt/cluster/programs/g16-c.01/g16/l502.exe)
 Keep R1 ints in memory in symmetry-blocked form, NReq=3831793.
 FoFCou: FMM=F IPFlag=           0 FMFlag=           0 FMFlg1=           0
         NFxFlg=           0 DoJE=F BraDBF=F KetDBF=F FulRan=T
         wScrn=  0.000000 ICntrl=       600 IOpCl=  0 I1Cent=           0 NGrid=           0
         NMat0=    1 NMatS0=    861 NMatT0=    0 NMatD0=    1 NMtDS0=    0 NMtDT0=    0
 Petite list used in FoFCou.
 Closed shell SCF:
 Using DIIS extrapolation, IDIIS=  1040.
 NGot=   754974720 LenX=   754771907 LenY=   754769617
 Requested convergence on RMS density matrix=1.00D-08 within 200 cycles.
 Requested convergence on MAX density matrix=1.00D-06.
 Requested convergence on             energy=1.00D-06.
 No special actions if energy rises.

 Cycle   1  Pass 1  IDiag  1:
 E= -76.2919692467158    
 DIIS: error= 5.12D-02 at cycle   1 NSaved=   1.
 NSaved= 1 IEnMin= 1 EnMin= -76.2919692467158     IErMin= 1 ErrMin= 5.12D-02
 ErrMax= 5.12D-02  0.00D+00 EMaxC= 1.00D-01 BMatC= 8.32D-02 BMatP= 8.32D-02
 IDIUse=3 WtCom= 4.88D-01 WtEn= 5.12D-01
 Coeff-Com:  0.100D+01
 Coeff-En:   0.100D+01
 Coeff:      0.100D+01
 Gap=     0.176 Goal=   None    Shift=    0.000
 GapD=    0.176 DampG=1.000 DampE=0.500 DampFc=0.5000 IDamp=-1.
 Damping current iteration by 5.00D-01
 RMSDP=1.00D-02 MaxDP=1.57D-01              OVMax= 1.98D-01

 Cycle   2  Pass 1  IDiag  1:
 E= -76.3063533859284     Delta-E=       -0.014384139213 Rises=F Damp=T
 DIIS: error= 1.87D-02 at cycle   2 NSaved=   2.
 NSaved= 2 IEnMin= 2 EnMin= -76.3063533859284     IErMin= 2 ErrMin= 1.87D-02
 ErrMax= 1.87D-02  0.00D+00 EMaxC= 1.00D-01 BMatC= 9.26D-03 BMatP= 8.32D-02
 IDIUse=3 WtCom= 8.13D-01 WtEn= 1.87D-01
 Coeff-Com:  0.240D+00 0.760D+00
 Coeff-En:   0.394D+00 0.606D+00
 Coeff:      0.268D+00 0.732D+00
 Gap=     0.306 Goal=   None    Shift=    0.000
 RMSDP=1.26D-03 MaxDP=1.68D-02 DE=-1.44D-02 OVMax= 1.26D-01

 Cycle   3  Pass 1  IDiag  1:
 E= -76.3565866905470     Delta-E=       -0.050233304619 Rises=F Damp=F
 DIIS: error= 1.95D-03 at cycle   3 NSaved=   3.
 NSaved= 3 IEnMin= 3 EnMin= -76.3565866905470     IErMin= 3 ErrMin= 1.95D-03
 ErrMax= 1.95D-03  0.00D+00 EMaxC= 1.00D-01 BMatC= 1.24D-04 BMatP= 9.26D-03
 IDIUse=3 WtCom= 9.81D-01 WtEn= 1.95D-02
 Coeff-Com:  0.248D-01-0.393D-01 0.101D+01
 Coeff-En:   0.000D+00 0.000D+00 0.100D+01
 Coeff:      0.243D-01-0.385D-01 0.101D+01
 Gap=     0.317 Goal=   None    Shift=    0.000
 RMSDP=1.57D-04 MaxDP=2.08D-03 DE=-5.02D-02 OVMax= 2.43D-03

 Cycle   4  Pass 1  IDiag  1:
 E= -76.3566693391331     Delta-E=       -0.000082648586 Rises=F Damp=F
 DIIS: error= 2.88D-04 at cycle   4 NSaved=   4.
 NSaved= 4 IEnMin= 4 EnMin= -76.3566693391331     IErMin= 4 ErrMin= 2.88D-04
 ErrMax= 2.88D-04  0.00D+00 EMaxC= 1.00D-01 BMatC= 3.50D-06 BMatP= 1.24D-04
 IDIUse=3 WtCom= 9.97D-01 WtEn= 2.88D-03
 Coeff-Com:  0.597D-02-0.211D-01 0.249D+00 0.766D+00
 Coeff-En:   0.000D+00 0.000D+00 0.000D+00 0.100D+01
 Coeff:      0.595D-02-0.211D-01 0.249D+00 0.766D+00
 Gap=     0.317 Goal=   None    Shift=    0.000
 RMSDP=1.96D-05 MaxDP=2.99D-04 DE=-8.26D-05 OVMax= 4.49D-04

 Cycle   5  Pass 1  IDiag  1:
 E= -76.3566716458309     Delta-E=       -0.000002306698 Rises=F Damp=F
 DIIS: error= 1.03D-04 at cycle   5 NSaved=   5.
 NSaved= 5 IEnMin= 5 EnMin= -76.3566716458309     IErMin= 5 ErrMin= 1.03D-04
 ErrMax= 1.03D-04  0.00D+00 EMaxC= 1.00D-01 BMatC= 2.63D-07 BMatP= 3.50D-06
 IDIUse=3 WtCom= 9.99D-01 WtEn= 1.03D-03
 Coeff-Com:  0.134D-02-0.213D-02 0.340D-02 0.430D-01 0.954D+00
 Coeff-En:   0.000D+00 0.000D+00 0.000D+00 0.000D+00 0.100D+01
 Coeff:      0.134D-02-0.212D-02 0.339D-02 0.430D-01 0.954D+00
 Gap=     0.318 Goal=   None    Shift=    0.000
 RMSDP=7.35D-06 MaxDP=1.10D-04 DE=-2.31D-06 OVMax= 1.46D-04

 Cycle   6  Pass 1  IDiag  1:
 E= -76.3566718518320     Delta-E=       -0.000000206001 Rises=F Damp=F
 DIIS: error= 5.01D-06 at cycle   6 NSaved=   6.
 NSaved= 6 IEnMin= 6 EnMin= -76.3566718518320     IErMin= 6 ErrMin= 5.01D-06
 ErrMax= 5.01D-06  0.00D+00 EMaxC= 1.00D-01 BMatC= 5.25D-10 BMatP= 2.63D-07
 IDIUse=1 WtCom= 1.00D+00 WtEn= 0.00D+00
 Coeff-Com:  0.315D-04-0.538D-04-0.337D-03-0.399D-02 0.468D-02 0.100D+01
 Coeff:      0.315D-04-0.538D-04-0.337D-03-0.399D-02 0.468D-02 0.100D+01
 Gap=     0.318 Goal=   None    Shift=    0.000
 RMSDP=4.87D-07 MaxDP=6.79D-06 DE=-2.06D-07 OVMax= 9.45D-06

 Cycle   7  Pass 1  IDiag  1:
 E= -76.3566718522844     Delta-E=       -0.000000000452 Rises=F Damp=F
 DIIS: error= 6.70D-07 at cycle   7 NSaved=   7.
 NSaved= 7 IEnMin= 7 EnMin= -76.3566718522844     IErMin= 7 ErrMin= 6.70D-07
 ErrMax= 6.70D-07  0.00D+00 EMaxC= 1.00D-01 BMatC= 1.76D-11 BMatP= 5.25D-10
 IDIUse=1 WtCom= 1.00D+00 WtEn= 0.00D+00
 Coeff-Com: -0.376D-04 0.550D-04-0.200D-03-0.261D-02-0.323D-01 0.288D+00
 Coeff-Com:  0.747D+00
 Coeff:     -0.376D-04 0.550D-04-0.200D-03-0.261D-02-0.323D-01 0.288D+00
 Coeff:      0.747D+00
 Gap=     0.318 Goal=   None    Shift=    0.000
 RMSDP=8.36D-08 MaxDP=8.55D-07 DE=-4.52D-10 OVMax= 1.63D-06

 Cycle   8  Pass 1  IDiag  1:
 E= -76.3566718523002     Delta-E=       -0.000000000016 Rises=F Damp=F
 DIIS: error= 9.44D-08 at cycle   8 NSaved=   8.
 NSaved= 8 IEnMin= 8 EnMin= -76.3566718523002     IErMin= 8 ErrMin= 9.44D-08
 ErrMax= 9.44D-08  0.00D+00 EMaxC= 1.00D-01 BMatC= 3.27D-13 BMatP= 1.76D-11
 IDIUse=1 WtCom= 1.00D+00 WtEn= 0.00D+00
 Coeff-Com: -0.527D-06 0.151D-05-0.114D-04 0.195D-03 0.151D-02-0.290D-01
 Coeff-Com: -0.453D-01 0.107D+01
 Coeff:     -0.527D-06 0.151D-05-0.114D-04 0.195D-03 0.151D-02-0.290D-01
 Coeff:     -0.453D-01 0.107D+01
 Gap=     0.318 Goal=   None    Shift=    0.000
 RMSDP=1.06D-08 MaxDP=2.08D-07 DE=-1.58D-11 OVMax= 3.51D-07

 Cycle   9  Pass 1  IDiag  1:
 E= -76.3566718523005     Delta-E=       -0.000000000000 Rises=F Damp=F
 DIIS: error= 5.86D-09 at cycle   9 NSaved=   9.
 NSaved= 9 IEnMin= 9 EnMin= -76.3566718523005     IErMin= 9 ErrMin= 5.86D-09
 ErrMax= 5.86D-09  0.00D+00 EMaxC= 1.00D-01 BMatC= 9.08D-16 BMatP= 3.27D-13
 IDIUse=1 WtCom= 1.00D+00 WtEn= 0.00D+00
 Coeff-Com:  0.197D-06-0.315D-06 0.146D-05 0.647D-05 0.167D-03-0.591D-03
 Coeff-Com: -0.221D-02-0.333D-01 0.104D+01
 Coeff:      0.197D-06-0.315D-06 0.146D-05 0.647D-05 0.167D-03-0.591D-03
 Coeff:     -0.221D-02-0.333D-01 0.104D+01
 Gap=     0.318 Goal=   None    Shift=    0.000
 RMSDP=7.93D-10 MaxDP=1.24D-08 DE=-2.98D-13 OVMax= 1.96D-08

 SCF Done:  E(RPBE1PBE) =  -76.3566718523     A.U. after    9 cycles
            NFock=  9  Conv=0.79D-09     -V/T= 2.0064
 KE= 7.587413230253D+01 PE=-1.984113023181D+02 EE= 3.720996954025D+01
 Leave Link  502 at Mon Mar 20 17:34:38 2023, MaxMem=   754974720 cpu:               2.4 elap:               0.6
 (Enter /opt/cluster/programs/g16-c.01/g16/l601.exe)
 Copying SCF densities to generalized density rwf, IOpCl= 0 IROHF=0.

 **********************************************************************

            Population analysis using the SCF Density.

 **********************************************************************

 Orbital symmetries:
       Occupied  (A') (A') (A') (A') (A")
       Virtual   (A') (A') (A') (A") (A') (A') (A') (A') (A') (A")
                 (A") (A') (A') (A') (A') (A') (A") (A') (A") (A')
                 (A") (A') (A') (A") (A') (A") (A') (A') (A') (A')
                 (A') (A") (A') (A") (A') (A')
 The electronic state is 1-A'.
 Alpha  occ. eigenvalues --  -19.23732  -1.04358  -0.52720  -0.42424  -0.33281
 Alpha virt. eigenvalues --   -0.01528   0.03226   0.10946   0.13292   0.14276
 Alpha virt. eigenvalues --    0.16045   0.18546   0.24691   0.28711   0.29374
 Alpha virt. eigenvalues --    0.31955   0.45712   0.50382   0.53635   0.62148
 Alpha virt. eigenvalues --    0.77001   0.92708   0.93872   0.96240   1.04950
 Alpha virt. eigenvalues --    1.19890   1.21819   1.33636   1.73574   1.74888
 Alpha virt. eigenvalues --    1.87120   2.01532   2.12300   2.28449   2.40873
 Alpha virt. eigenvalues --    2.72951   3.30592   3.31604   3.32505   3.58400
 Alpha virt. eigenvalues --    3.87393
          Condensed to atoms (all electrons):
               1          2          3
     1  O    7.652239   0.312956   0.299608
     2  H    0.312956   0.623426  -0.044958
     3  H    0.299608  -0.044958   0.589124
 Mulliken charges:
               1
     1  O   -0.264803
     2  H    0.108577
     3  H    0.156226
 Sum of Mulliken charges =  -0.00000
 Mulliken charges with hydrogens summed into heavy atoms:
               1
     1  O   -0.000000
 Electronic spatial extent (au):  <R**2>=             20.2530
 Charge=              0.0000 electrons
 Dipole moment (field-independent basis, Debye):
    X=              0.0276    Y=             -1.9936    Z=              0.0000  Tot=              1.9938
 Quadrupole moment (field-independent basis, Debye-Ang):
   XX=             -4.7738   YY=             -6.1945   ZZ=             -7.7916
   XY=              0.1117   XZ=              0.0000   YZ=              0.0000
 Traceless Quadrupole moment (field-independent basis, Debye-Ang):
   XX=              1.4795   YY=              0.0588   ZZ=             -1.5383
   XY=              0.1117   XZ=              0.0000   YZ=              0.0000
 Octapole moment (field-independent basis, Debye-Ang**2):
  XXX=              0.0782  YYY=             -1.1210  ZZZ=              0.0000  XYY=             -0.0859
  XXY=             -1.2962  XXZ=              0.0000  XZZ=              0.0294  YZZ=             -0.2288
  YYZ=              0.0000  XYZ=              0.0000
 Hexadecapole moment (field-independent basis, Debye-Ang**3):
 XXXX=             -7.0239 YYYY=             -8.2428 ZZZZ=             -7.6728 XXXY=             -0.0254
 XXXZ=              0.0000 YYYX=              0.0010 YYYZ=              0.0000 ZZZX=              0.0000
 ZZZY=              0.0000 XXYY=             -2.1317 XXZZ=             -2.7193 YYZZ=             -2.7260
 XXYZ=              0.0000 YYXZ=              0.0000 ZZXY=             -0.0364
 N-N= 8.970528622986D+00 E-N=-1.984113021217D+02  KE= 7.587413230253D+01
 Symmetry A'   KE= 7.142807102026D+01
 Symmetry A"   KE= 4.446061282270D+00
 No NMR shielding tensors so no spin-rotation constants.
 Leave Link  601 at Mon Mar 20 17:34:38 2023, MaxMem=   754974720 cpu:               0.6 elap:               0.2
 (Enter /opt/cluster/programs/g16-c.01/g16/l9999.exe)
 Unable to Open any file for archive entry.
 1\1\GINC-NODE61\SP\RPBE1PBE\Aug-CC-pVDZ\H2O1\BOITTIER\20-Mar-2023\0\\#
 P PBE1PBE/aug-cc-pVDZ scf(maxcycle=200)\\Gaussian input\\0,1\O,0,0.,0.
 11751,0.\H,0,0.7578497316,-0.4701504329,0.\H,0,-0.7039585662,-0.605347
 7571,0.\\Version=ES64L-G16RevC.01\State=1-A'\HF=-76.3566719\RMSD=7.932
 e-10\Dipole=0.0430774,-0.7832351,0.\Quadrupole=1.091351,0.052316,-1.14
 36669,0.1260985,0.,0.\PG=CS [SG(H2O1)]\\@
 The archive entry for this job was punched.


 ERROR IS THE FORCE THAT WELDS MEN TOGETHER....
 TRUTH IS COMMUNICATED TO MEN ONLY BY DEEDS OF TRUTH.
           TOLSTOI,MY RELIGION
 Job cpu time:       0 days  0 hours  0 minutes  6.0 seconds.
 Elapsed time:       0 days  0 hours  0 minutes  1.6 seconds.
 File lengths (MBytes):  RWF=      6 Int=      0 D2E=      0 Chk=      1 Scr=      1
 Normal termination of Gaussian 16 at Mon Mar 20 17:34:38 2023.
