 Entering Gaussian System, Link 0=/opt/cluster/programs/g16-c.01/g16/g16
 Input=/scratch/boittier/jobs/tmp.7262003/gaussian_64_water_wb97_ptz.com
 Output=/scratch/boittier/jobs/tmp.7262003/gaussian_64_water_wb97_ptz.out
 Initial command:
 /opt/cluster/programs/g16-c.01/g16/l1.exe "/scratch/boittier/jobs/tmp.7262003/Gau-110033.inp" -scrdir="/scratch/boittier/jobs/tmp.7262003/"
 Entering Link 1 = /opt/cluster/programs/g16-c.01/g16/l1.exe PID=    110034.
  
 Copyright (c) 1988-2019, Gaussian, Inc.  All Rights Reserved.
  
 This is part of the Gaussian(R) 16 program.  It is based on
 the Gaussian(R) 09 system (copyright 2009, Gaussian, Inc.),
 the Gaussian(R) 03 system (copyright 2003, Gaussian, Inc.),
 the Gaussian(R) 98 system (copyright 1998, Gaussian, Inc.),
 the Gaussian(R) 94 system (copyright 1995, Gaussian, Inc.),
 the Gaussian 92(TM) system (copyright 1992, Gaussian, Inc.),
 the Gaussian 90(TM) system (copyright 1990, Gaussian, Inc.),
 the Gaussian 88(TM) system (copyright 1988, Gaussian, Inc.),
 the Gaussian 86(TM) system (copyright 1986, Carnegie Mellon
 University), and the Gaussian 82(TM) system (copyright 1983,
 Carnegie Mellon University). Gaussian is a federally registered
 trademark of Gaussian, Inc.
  
 This software contains proprietary and confidential information,
 including trade secrets, belonging to Gaussian, Inc.
  
 This software is provided under written license and may be
 used, copied, transmitted, or stored only in accord with that
 written license.
  
 The following legend is applicable only to US Government
 contracts under FAR:
  
                    RESTRICTED RIGHTS LEGEND
  
 Use, reproduction and disclosure by the US Government is
 subject to restrictions as set forth in subparagraphs (a)
 and (c) of the Commercial Computer Software - Restricted
 Rights clause in FAR 52.227-19.
  
 Gaussian, Inc.
 340 Quinnipiac St., Bldg. 40, Wallingford CT 06492
  
  
 ---------------------------------------------------------------
 Warning -- This program may not be used in any manner that
 competes with the business of Gaussian, Inc. or will provide
 assistance to any competitor of Gaussian, Inc.  The licensee
 of this program is prohibited from giving any competitor of
 Gaussian, Inc. access to this program.  By using this program,
 the user acknowledges that Gaussian, Inc. is engaged in the
 business of creating and licensing software in the field of
 computational chemistry and represents and warrants to the
 licensee that it is not a competitor of Gaussian, Inc. and that
 it will not use this program in any manner prohibited above.
 ---------------------------------------------------------------
  

 Cite this work as:
 Gaussian 16, Revision C.01,
 M. J. Frisch, G. W. Trucks, H. B. Schlegel, G. E. Scuseria, 
 M. A. Robb, J. R. Cheeseman, G. Scalmani, V. Barone, 
 G. A. Petersson, H. Nakatsuji, X. Li, M. Caricato, A. V. Marenich, 
 J. Bloino, B. G. Janesko, R. Gomperts, B. Mennucci, H. P. Hratchian, 
 J. V. Ortiz, A. F. Izmaylov, J. L. Sonnenberg, D. Williams-Young, 
 F. Ding, F. Lipparini, F. Egidi, J. Goings, B. Peng, A. Petrone, 
 T. Henderson, D. Ranasinghe, V. G. Zakrzewski, J. Gao, N. Rega, 
 G. Zheng, W. Liang, M. Hada, M. Ehara, K. Toyota, R. Fukuda, 
 J. Hasegawa, M. Ishida, T. Nakajima, Y. Honda, O. Kitao, H. Nakai, 
 T. Vreven, K. Throssell, J. A. Montgomery, Jr., J. E. Peralta, 
 F. Ogliaro, M. J. Bearpark, J. J. Heyd, E. N. Brothers, K. N. Kudin, 
 V. N. Staroverov, T. A. Keith, R. Kobayashi, J. Normand, 
 K. Raghavachari, A. P. Rendell, J. C. Burant, S. S. Iyengar, 
 J. Tomasi, M. Cossi, J. M. Millam, M. Klene, C. Adamo, R. Cammi, 
 J. W. Ochterski, R. L. Martin, K. Morokuma, O. Farkas, 
 J. B. Foresman, and D. J. Fox, Gaussian, Inc., Wallingford CT, 2019.
 
 ******************************************
 Gaussian 16:  ES64L-G16RevC.01  3-Jul-2019
                 8-Feb-2023 
 ******************************************
 %nproc=4
 Will use up to    4 processors via shared memory.
 %mem=5760MB
 %chk=gaussian_64_water_wb97_ptz.chk
 ------------------------------------
 #P wB97XD/6-311g** scf(maxcycle=200)
 ------------------------------------
 1/38=1,172=1/1;
 2/12=2,17=6,18=5,40=1/2;
 3/5=4,6=6,7=101,11=2,25=1,30=1,74=-58/1,2,3;
 4//1;
 5/5=2,7=200,38=5/2;
 6/7=2,8=2,9=2,10=2,28=1/1;
 99/5=1,9=1/99;
 Leave Link    1 at Wed Feb  8 14:40:55 2023, MaxMem=   754974720 cpu:               0.1 elap:               0.0
 (Enter /opt/cluster/programs/g16-c.01/g16/l101.exe)
 --------------
 Gaussian input
 --------------
 Symbolic Z-matrix:
 Charge =  0 Multiplicity = 1
 O                     0.        0.11751   0. 
 H                     0.75785  -0.47015   0. 
 H                    -0.58722  -0.57636   0. 
 
 ITRead=  0  0  0
 MicOpt= -1 -1 -1
 NAtoms=      3 NQM=        3 NQMF=       0 NMMI=      0 NMMIF=      0
                NMic=       0 NMicF=      0.
                    Isotopes and Nuclear Properties:
 (Nuclear quadrupole moments (NQMom) in fm**2, nuclear magnetic moments (NMagM)
  in nuclear magnetons)

  Atom         1           2           3
 IAtWgt=          16           1           1
 AtmWgt=  15.9949146   1.0078250   1.0078250
 NucSpn=           0           1           1
 AtZEff=  -0.0000000  -0.0000000  -0.0000000
 NQMom=    0.0000000   0.0000000   0.0000000
 NMagM=    0.0000000   2.7928460   2.7928460
 AtZNuc=   8.0000000   1.0000000   1.0000000
 Leave Link  101 at Wed Feb  8 14:40:55 2023, MaxMem=   754974720 cpu:               0.6 elap:               0.2
 (Enter /opt/cluster/programs/g16-c.01/g16/l202.exe)
                          Input orientation:                          
 ---------------------------------------------------------------------
 Center     Atomic      Atomic             Coordinates (Angstroms)
 Number     Number       Type             X           Y           Z
 ---------------------------------------------------------------------
      1          8           0        0.000000    0.117510    0.000000
      2          1           0        0.757850   -0.470150    0.000000
      3          1           0       -0.587219   -0.576359    0.000000
 ---------------------------------------------------------------------
                    Distance matrix (angstroms):
                    1          2          3
     1  O    0.000000
     2  H    0.959000   0.000000
     3  H    0.909000   1.349256   0.000000
 Stoichiometry    H2O
 Framework group  CS[SG(H2O)]
 Deg. of freedom     3
 Full point group                 CS      NOp   2
 Largest Abelian subgroup         CS      NOp   2
 Largest concise Abelian subgroup C1      NOp   1
                         Standard orientation:                         
 ---------------------------------------------------------------------
 Center     Atomic      Atomic             Coordinates (Angstroms)
 Number     Number       Type             X           Y           Z
 ---------------------------------------------------------------------
      1          8           0        0.000000    0.129284   -0.000000
      2          1           0        0.673660   -0.553258    0.000000
      3          1           0       -0.673660   -0.481014    0.000000
 ---------------------------------------------------------------------
 Rotational constants (GHZ):         685.6470867         544.4252202         303.4647346
 Leave Link  202 at Wed Feb  8 14:40:55 2023, MaxMem=   754974720 cpu:               0.1 elap:               0.0
 (Enter /opt/cluster/programs/g16-c.01/g16/l301.exe)
 Standard basis: 6-311G(d,p) (5D, 7F)
 Ernie: Thresh=  0.10000D-02 Tol=  0.10000D-05 Strict=F.
 There are    24 symmetry adapted cartesian basis functions of A'  symmetry.
 There are     7 symmetry adapted cartesian basis functions of A"  symmetry.
 There are    23 symmetry adapted basis functions of A'  symmetry.
 There are     7 symmetry adapted basis functions of A"  symmetry.
    30 basis functions,    48 primitive gaussians,    31 cartesian basis functions
     5 alpha electrons        5 beta electrons
       nuclear repulsion energy         9.4638329891 Hartrees.
 IExCor= 4639 DFT=T Ex+Corr=wB97XD ExCW=0 ScaHFX=  1.000000
 ScaDFX=  1.000000  1.000000  1.000000  1.000000 ScalE2=  1.000000  1.000000
 IRadAn=      5 IRanWt=     -1 IRanGd=            0 ICorTp=0 IEmpDi=121
 HFx  wShort=  0.000000 wLong=  0.200000 cFull=  0.222036 cShort=  0.000000 cLong=  0.777964
 DFx  wShort=  0.000000 wLong=  0.200000 cFull=  0.000000 cShort=  0.000000 cLong=  1.000000
 NAtoms=    3 NActive=    3 NUniq=    3 SFac= 1.00D+00 NAtFMM=   60 NAOKFM=F Big=F
 Integral buffers will be    131072 words long.
 Raffenetti 2 integral format.
 Two-electron integral symmetry is turned on.
 R6Disp:  Grimme-D2 Dispersion energy=       -0.0000138903 Hartrees.
 Nuclear repulsion after empirical dispersion term =        9.4638190988 Hartrees.
 Leave Link  301 at Wed Feb  8 14:40:55 2023, MaxMem=   754974720 cpu:               0.1 elap:               0.0
 (Enter /opt/cluster/programs/g16-c.01/g16/l302.exe)
 NPDir=0 NMtPBC=     1 NCelOv=     1 NCel=       1 NClECP=     1 NCelD=      1
         NCelK=      1 NCelE2=     1 NClLst=     1 CellRange=     0.0.
 One-electron integrals computed using PRISM.
 One-electron integral symmetry used in STVInt
 NBasis=    30 RedAO= T EigKep=  1.59D-02  NBF=    23     7
 NBsUse=    30 1.00D-06 EigRej= -1.00D+00 NBFU=    23     7
 Precomputing XC quadrature grid using
 IXCGrd= 4 IRadAn=           5 IRanWt=          -1 IRanGd=           0 AccXCQ= 0.00D+00.
 Generated NRdTot=       0 NPtTot=           0 NUsed=           0 NTot=          32
 NSgBfM=    31    31    31    31    31 MxSgAt=     3 MxSgA2=     3.
 Leave Link  302 at Wed Feb  8 14:40:56 2023, MaxMem=   754974720 cpu:               0.4 elap:               0.1
 (Enter /opt/cluster/programs/g16-c.01/g16/l303.exe)
 DipDrv:  MaxL=1.
 Leave Link  303 at Wed Feb  8 14:40:56 2023, MaxMem=   754974720 cpu:               0.2 elap:               0.1
 (Enter /opt/cluster/programs/g16-c.01/g16/l401.exe)
 ExpMin= 1.03D-01 ExpMax= 8.59D+03 ExpMxC= 1.30D+03 IAcc=3 IRadAn=         5 AccDes= 0.00D+00
 Harris functional with IExCor= 4639 and IRadAn=       5 diagonalized for initial guess.
 HarFok:  IExCor= 4639 AccDes= 0.00D+00 IRadAn=         5 IDoV= 1 UseB2=F ITyADJ=14
 ICtDFT=  3500011 ScaDFX=  1.000000  1.000000  1.000000  1.000000
 FoFCou: FMM=F IPFlag=           0 FMFlag=      100000 FMFlg1=           0
         NFxFlg=           0 DoJE=T BraDBF=F KetDBF=T FulRan=T
         wScrn=  0.000000 ICntrl=       500 IOpCl=  0 I1Cent=   200000004 NGrid=           0
         NMat0=    1 NMatS0=      1 NMatT0=    0 NMatD0=    1 NMtDS0=    0 NMtDT0=    0
 Petite list used in FoFCou.
 Harris En= -73.6006740698455    
 JPrj=0 DoOrth=F DoCkMO=F.
 Initial guess orbital symmetries:
       Occupied  (A') (A') (A') (A') (A")
       Virtual   (A') (A') (A') (A') (A') (A") (A') (A') (A') (A")
                 (A") (A') (A') (A') (A') (A') (A") (A") (A') (A')
                 (A') (A") (A') (A') (A')
 The electronic state of the initial guess is 1-A'.
 Leave Link  401 at Wed Feb  8 14:40:56 2023, MaxMem=   754974720 cpu:               0.6 elap:               0.2
 (Enter /opt/cluster/programs/g16-c.01/g16/l502.exe)
 Keep R1 ints in memory in symmetry-blocked form, NReq=3688183.
 FoFCou: FMM=F IPFlag=           0 FMFlag=           0 FMFlg1=           0
         NFxFlg=           0 DoJE=F BraDBF=F KetDBF=F FulRan=T
         wScrn=  0.000000 ICntrl=       600 IOpCl=  0 I1Cent=           0 NGrid=           0
         NMat0=    1 NMatS0=    465 NMatT0=    0 NMatD0=    1 NMtDS0=    0 NMtDT0=    0
 Petite list used in FoFCou.
 Closed shell SCF:
 Using DIIS extrapolation, IDIIS=  1040.
 NGot=   754974720 LenX=   754911268 LenY=   754909866
 Requested convergence on RMS density matrix=1.00D-08 within 200 cycles.
 Requested convergence on MAX density matrix=1.00D-06.
 Requested convergence on             energy=1.00D-06.
 No special actions if energy rises.
 Integral accuracy reduced to 1.0D-05 until final iterations.

 Cycle   1  Pass 0  IDiag  1:
 E= -76.4064873026194    
 DIIS: error= 7.30D-02 at cycle   1 NSaved=   1.
 NSaved= 1 IEnMin= 1 EnMin= -76.4064873026194     IErMin= 1 ErrMin= 7.30D-02
 ErrMax= 7.30D-02  0.00D+00 EMaxC= 1.00D-01 BMatC= 1.28D-01 BMatP= 1.28D-01
 IDIUse=3 WtCom= 2.70D-01 WtEn= 7.30D-01
 Coeff-Com:  0.100D+01
 Coeff-En:   0.100D+01
 Coeff:      0.100D+01
 Gap=     0.495 Goal=   None    Shift=    0.000
 GapD=    0.495 DampG=2.000 DampE=0.500 DampFc=1.0000 IDamp=-1.
 RMSDP=2.77D-03 MaxDP=2.41D-02              OVMax= 3.75D-02

 Cycle   2  Pass 0  IDiag  1:
 E= -76.4158551836862     Delta-E=       -0.009367881067 Rises=F Damp=F
 DIIS: error= 7.75D-03 at cycle   2 NSaved=   2.
 NSaved= 2 IEnMin= 2 EnMin= -76.4158551836862     IErMin= 2 ErrMin= 7.75D-03
 ErrMax= 7.75D-03  0.00D+00 EMaxC= 1.00D-01 BMatC= 1.21D-03 BMatP= 1.28D-01
 IDIUse=3 WtCom= 9.22D-01 WtEn= 7.75D-02
 Coeff-Com:  0.444D-01 0.956D+00
 Coeff-En:   0.000D+00 0.100D+01
 Coeff:      0.409D-01 0.959D+00
 Gap=     0.521 Goal=   None    Shift=    0.000
 RMSDP=1.03D-03 MaxDP=1.47D-02 DE=-9.37D-03 OVMax= 1.26D-02

 Cycle   3  Pass 0  IDiag  1:
 E= -76.4160808554908     Delta-E=       -0.000225671805 Rises=F Damp=F
 DIIS: error= 6.35D-03 at cycle   3 NSaved=   3.
 NSaved= 3 IEnMin= 3 EnMin= -76.4160808554908     IErMin= 3 ErrMin= 6.35D-03
 ErrMax= 6.35D-03  0.00D+00 EMaxC= 1.00D-01 BMatC= 8.07D-04 BMatP= 1.21D-03
 IDIUse=3 WtCom= 9.37D-01 WtEn= 6.35D-02
 Coeff-Com:  0.212D-01 0.459D+00 0.519D+00
 Coeff-En:   0.000D+00 0.393D+00 0.607D+00
 Coeff:      0.199D-01 0.455D+00 0.525D+00
 Gap=     0.510 Goal=   None    Shift=    0.000
 RMSDP=4.70D-04 MaxDP=6.38D-03 DE=-2.26D-04 OVMax= 6.32D-03

 Cycle   4  Pass 0  IDiag  1:
 E= -76.4165648885505     Delta-E=       -0.000484033060 Rises=F Damp=F
 DIIS: error= 6.30D-04 at cycle   4 NSaved=   4.
 NSaved= 4 IEnMin= 4 EnMin= -76.4165648885505     IErMin= 4 ErrMin= 6.30D-04
 ErrMax= 6.30D-04  0.00D+00 EMaxC= 1.00D-01 BMatC= 6.92D-06 BMatP= 8.07D-04
 IDIUse=3 WtCom= 9.94D-01 WtEn= 6.30D-03
 Coeff-Com:  0.193D-02 0.558D-01 0.117D+00 0.825D+00
 Coeff-En:   0.000D+00 0.000D+00 0.000D+00 0.100D+01
 Coeff:      0.192D-02 0.554D-01 0.116D+00 0.826D+00
 Gap=     0.511 Goal=   None    Shift=    0.000
 RMSDP=5.24D-05 MaxDP=6.97D-04 DE=-4.84D-04 OVMax= 5.35D-04

 Cycle   5  Pass 0  IDiag  1:
 E= -76.4165692332211     Delta-E=       -0.000004344671 Rises=F Damp=F
 DIIS: error= 5.24D-05 at cycle   5 NSaved=   5.
 NSaved= 5 IEnMin= 5 EnMin= -76.4165692332211     IErMin= 5 ErrMin= 5.24D-05
 ErrMax= 5.24D-05  0.00D+00 EMaxC= 1.00D-01 BMatC= 8.14D-08 BMatP= 6.92D-06
 IDIUse=1 WtCom= 1.00D+00 WtEn= 0.00D+00
 Coeff-Com: -0.738D-03-0.190D-01-0.207D-01-0.149D-01 0.106D+01
 Coeff:     -0.738D-03-0.190D-01-0.207D-01-0.149D-01 0.106D+01
 Gap=     0.511 Goal=   None    Shift=    0.000
 RMSDP=1.42D-05 MaxDP=1.31D-04 DE=-4.34D-06 OVMax= 2.75D-04

 Cycle   6  Pass 0  IDiag  1:
 E= -76.4165693800203     Delta-E=       -0.000000146799 Rises=F Damp=F
 DIIS: error= 1.16D-05 at cycle   6 NSaved=   6.
 NSaved= 6 IEnMin= 6 EnMin= -76.4165693800203     IErMin= 6 ErrMin= 1.16D-05
 ErrMax= 1.16D-05  0.00D+00 EMaxC= 1.00D-01 BMatC= 3.16D-09 BMatP= 8.14D-08
 IDIUse=1 WtCom= 1.00D+00 WtEn= 0.00D+00
 Coeff-Com:  0.127D-03 0.283D-02 0.380D-02-0.111D-01-0.221D+00 0.123D+01
 Coeff:      0.127D-03 0.283D-02 0.380D-02-0.111D-01-0.221D+00 0.123D+01
 Gap=     0.511 Goal=   None    Shift=    0.000
 RMSDP=3.84D-06 MaxDP=4.47D-05 DE=-1.47D-07 OVMax= 7.13D-05

 Initial convergence to 1.0D-05 achieved.  Increase integral accuracy.
 Cycle   7  Pass 1  IDiag  1:
 E= -76.4165644322977     Delta-E=        0.000004947723 Rises=F Damp=F
 DIIS: error= 1.36D-05 at cycle   1 NSaved=   1.
 NSaved= 1 IEnMin= 1 EnMin= -76.4165644322977     IErMin= 1 ErrMin= 1.36D-05
 ErrMax= 1.36D-05  0.00D+00 EMaxC= 1.00D-01 BMatC= 6.33D-09 BMatP= 6.33D-09
 IDIUse=1 WtCom= 1.00D+00 WtEn= 0.00D+00
 Coeff-Com:  0.100D+01
 Coeff:      0.100D+01
 Gap=     0.511 Goal=   None    Shift=    0.000
 RMSDP=3.84D-06 MaxDP=4.47D-05 DE= 4.95D-06 OVMax= 2.01D-05

 Cycle   8  Pass 1  IDiag  1:
 E= -76.4165644363763     Delta-E=       -0.000000004079 Rises=F Damp=F
 DIIS: error= 3.48D-06 at cycle   2 NSaved=   2.
 NSaved= 2 IEnMin= 2 EnMin= -76.4165644363763     IErMin= 2 ErrMin= 3.48D-06
 ErrMax= 3.48D-06  0.00D+00 EMaxC= 1.00D-01 BMatC= 2.67D-10 BMatP= 6.33D-09
 IDIUse=1 WtCom= 1.00D+00 WtEn= 0.00D+00
 Coeff-Com: -0.275D-02 0.100D+01
 Coeff:     -0.275D-02 0.100D+01
 Gap=     0.511 Goal=   None    Shift=    0.000
 RMSDP=5.83D-07 MaxDP=5.96D-06 DE=-4.08D-09 OVMax= 7.52D-06

 Cycle   9  Pass 1  IDiag  1:
 E= -76.4165644364240     Delta-E=       -0.000000000048 Rises=F Damp=F
 DIIS: error= 3.33D-06 at cycle   3 NSaved=   3.
 NSaved= 3 IEnMin= 3 EnMin= -76.4165644364240     IErMin= 3 ErrMin= 3.33D-06
 ErrMax= 3.33D-06  0.00D+00 EMaxC= 1.00D-01 BMatC= 2.57D-10 BMatP= 2.67D-10
 IDIUse=1 WtCom= 1.00D+00 WtEn= 0.00D+00
 Coeff-Com: -0.399D-01 0.517D+00 0.523D+00
 Coeff:     -0.399D-01 0.517D+00 0.523D+00
 Gap=     0.511 Goal=   None    Shift=    0.000
 RMSDP=2.48D-07 MaxDP=3.57D-06 DE=-4.77D-11 OVMax= 3.28D-06

 Cycle  10  Pass 1  IDiag  1:
 E= -76.4165644365797     Delta-E=       -0.000000000156 Rises=F Damp=F
 DIIS: error= 9.32D-08 at cycle   4 NSaved=   4.
 NSaved= 4 IEnMin= 4 EnMin= -76.4165644365797     IErMin= 4 ErrMin= 9.32D-08
 ErrMax= 9.32D-08  0.00D+00 EMaxC= 1.00D-01 BMatC= 2.91D-13 BMatP= 2.57D-10
 IDIUse=1 WtCom= 1.00D+00 WtEn= 0.00D+00
 Coeff-Com:  0.962D-03-0.433D-01-0.412D-01 0.108D+01
 Coeff:      0.962D-03-0.433D-01-0.412D-01 0.108D+01
 Gap=     0.511 Goal=   None    Shift=    0.000
 RMSDP=3.93D-08 MaxDP=4.49D-07 DE=-1.56D-10 OVMax= 6.78D-07

 Cycle  11  Pass 1  IDiag  1:
 E= -76.4165644365805     Delta-E=       -0.000000000001 Rises=F Damp=F
 DIIS: error= 3.79D-08 at cycle   5 NSaved=   5.
 NSaved= 5 IEnMin= 5 EnMin= -76.4165644365805     IErMin= 5 ErrMin= 3.79D-08
 ErrMax= 3.79D-08  0.00D+00 EMaxC= 1.00D-01 BMatC= 2.16D-14 BMatP= 2.91D-13
 IDIUse=1 WtCom= 1.00D+00 WtEn= 0.00D+00
 Coeff-Com:  0.763D-03-0.535D-02 0.687D-03-0.165D+00 0.117D+01
 Coeff:      0.763D-03-0.535D-02 0.687D-03-0.165D+00 0.117D+01
 Gap=     0.511 Goal=   None    Shift=    0.000
 RMSDP=1.05D-08 MaxDP=1.02D-07 DE=-7.82D-13 OVMax= 2.00D-07

 Cycle  12  Pass 1  IDiag  1:
 E= -76.4165644365805     Delta-E=       -0.000000000000 Rises=F Damp=F
 DIIS: error= 4.67D-09 at cycle   6 NSaved=   6.
 NSaved= 6 IEnMin= 6 EnMin= -76.4165644365805     IErMin= 6 ErrMin= 4.67D-09
 ErrMax= 4.67D-09  0.00D+00 EMaxC= 1.00D-01 BMatC= 6.27D-16 BMatP= 2.16D-14
 IDIUse=1 WtCom= 1.00D+00 WtEn= 0.00D+00
 Coeff-Com:  0.573D-04 0.538D-03 0.500D-03-0.299D-01-0.504D-01 0.108D+01
 Coeff:      0.573D-04 0.538D-03 0.500D-03-0.299D-01-0.504D-01 0.108D+01
 Gap=     0.511 Goal=   None    Shift=    0.000
 RMSDP=2.15D-09 MaxDP=2.51D-08 DE=-5.68D-14 OVMax= 4.13D-08

 SCF Done:  E(RwB97XD) =  -76.4165644366     A.U. after   12 cycles
            NFock= 12  Conv=0.21D-08     -V/T= 2.0000
 KE= 7.641546767767D+01 PE=-2.000851868117D+02 EE= 3.778933559871D+01
 Leave Link  502 at Wed Feb  8 14:40:56 2023, MaxMem=   754974720 cpu:               1.9 elap:               0.5
 (Enter /opt/cluster/programs/g16-c.01/g16/l601.exe)
 Copying SCF densities to generalized density rwf, IOpCl= 0 IROHF=0.

 **********************************************************************

            Population analysis using the SCF Density.

 **********************************************************************

 Orbital symmetries:
       Occupied  (A') (A') (A') (A') (A")
       Virtual   (A') (A') (A') (A') (A") (A') (A') (A') (A') (A")
                 (A") (A') (A') (A') (A') (A') (A") (A") (A') (A')
                 (A') (A") (A') (A') (A')
 The electronic state is 1-A'.
 Alpha  occ. eigenvalues --  -19.22723  -1.12570  -0.59595  -0.48945  -0.39182
 Alpha virt. eigenvalues --    0.11953   0.19813   0.45845   0.55062   0.85290
 Alpha virt. eigenvalues --    0.85438   0.96169   1.16445   1.17700   1.40179
 Alpha virt. eigenvalues --    1.47968   1.85364   1.99759   2.20882   2.40455
 Alpha virt. eigenvalues --    2.61864   3.21945   3.28891   3.41450   3.66285
 Alpha virt. eigenvalues --    4.00714   4.88309   5.40526   5.70856  50.01347
          Condensed to atoms (all electrons):
               1          2          3
     1  O    7.830544   0.301943   0.310554
     2  H    0.301943   0.511929  -0.034175
     3  H    0.310554  -0.034175   0.500883
 Mulliken charges:
               1
     1  O   -0.443041
     2  H    0.220303
     3  H    0.222738
 Sum of Mulliken charges =   0.00000
 Mulliken charges with hydrogens summed into heavy atoms:
               1
     1  O    0.000000
 Electronic spatial extent (au):  <R**2>=             18.7060
 Charge=              0.0000 electrons
 Dipole moment (field-independent basis, Debye):
    X=             -0.0463    Y=             -2.2244    Z=              0.0000  Tot=              2.2249
 Quadrupole moment (field-independent basis, Debye-Ang):
   XX=             -4.7681   YY=             -5.7031   ZZ=             -7.1056
   XY=             -0.0878   XZ=             -0.0000   YZ=             -0.0000
 Traceless Quadrupole moment (field-independent basis, Debye-Ang):
   XX=              1.0909   YY=              0.1558   ZZ=             -1.2467
   XY=             -0.0878   XZ=             -0.0000   YZ=             -0.0000
 Octapole moment (field-independent basis, Debye-Ang**2):
  XXX=             -0.1027  YYY=             -1.4629  ZZZ=              0.0000  XYY=              0.0563
  XXY=             -1.1138  XXZ=              0.0000  XZZ=             -0.0354  YZZ=             -0.3789
  YYZ=              0.0000  XYZ=              0.0000
 Hexadecapole moment (field-independent basis, Debye-Ang**3):
 XXXX=             -5.9253 YYYY=             -6.2145 ZZZZ=             -5.1529 XXXY=              0.0550
 XXXZ=              0.0000 YYYX=              0.0109 YYYZ=              0.0000 ZZZX=              0.0000
 ZZZY=              0.0000 XXYY=             -1.6427 XXZZ=             -2.0143 YYZZ=             -1.9747
 XXYZ=             -0.0000 YYXZ=              0.0000 ZZXY=              0.0348
 N-N= 9.463819098791D+00 E-N=-2.000851868255D+02  KE= 7.641546767767D+01
 Symmetry A'   KE= 7.177123160975D+01
 Symmetry A"   KE= 4.644236067918D+00
 No NMR shielding tensors so no spin-rotation constants.
 Leave Link  601 at Wed Feb  8 14:40:56 2023, MaxMem=   754974720 cpu:               0.4 elap:               0.1
 (Enter /opt/cluster/programs/g16-c.01/g16/l9999.exe)
 Unable to Open any file for archive entry.
 1\1\GINC-NODE65\SP\RwB97XD\6-311G(d,p)\H2O1\BOITTIER\08-Feb-2023\0\\#P
  wB97XD/6-311g** scf(maxcycle=200)\\Gaussian input\\0,1\O,0,0.,0.11751
 ,0.\H,0,0.7578497316,-0.4701504329,0.\H,0,-0.5872191805,-0.5763593206,
 0.\\Version=ES64L-G16RevC.01\State=1-A'\HF=-76.4165644\RMSD=2.147e-09\
 Dipole=0.0974605,-0.8699064,0.\Quadrupole=0.8160119,0.11085,-0.9268619
 ,0.0279261,0.,0.\PG=CS [SG(H2O1)]\\@
 The archive entry for this job was punched.


 CONFIDENCE: THAT QUIET ASSURED FEELING YOU HAVE
 JUST BEFORE YOU FALL FLAT ON YOUR FACE.
 Job cpu time:       0 days  0 hours  0 minutes  4.7 seconds.
 Elapsed time:       0 days  0 hours  0 minutes  1.4 seconds.
 File lengths (MBytes):  RWF=      6 Int=      0 D2E=      0 Chk=      1 Scr=      1
 Normal termination of Gaussian 16 at Wed Feb  8 14:40:56 2023.
