 Entering Gaussian System, Link 0=/opt/cluster/programs/g16-c.01/g16/g16
 Input=/scratch/boittier/jobs/tmp.7261982/gaussian_43_water_wb97_ptz.com
 Output=/scratch/boittier/jobs/tmp.7261982/gaussian_43_water_wb97_ptz.out
 Initial command:
 /opt/cluster/programs/g16-c.01/g16/l1.exe "/scratch/boittier/jobs/tmp.7261982/Gau-51081.inp" -scrdir="/scratch/boittier/jobs/tmp.7261982/"
 Entering Link 1 = /opt/cluster/programs/g16-c.01/g16/l1.exe PID=     51082.
  
 Copyright (c) 1988-2019, Gaussian, Inc.  All Rights Reserved.
  
 This is part of the Gaussian(R) 16 program.  It is based on
 the Gaussian(R) 09 system (copyright 2009, Gaussian, Inc.),
 the Gaussian(R) 03 system (copyright 2003, Gaussian, Inc.),
 the Gaussian(R) 98 system (copyright 1998, Gaussian, Inc.),
 the Gaussian(R) 94 system (copyright 1995, Gaussian, Inc.),
 the Gaussian 92(TM) system (copyright 1992, Gaussian, Inc.),
 the Gaussian 90(TM) system (copyright 1990, Gaussian, Inc.),
 the Gaussian 88(TM) system (copyright 1988, Gaussian, Inc.),
 the Gaussian 86(TM) system (copyright 1986, Carnegie Mellon
 University), and the Gaussian 82(TM) system (copyright 1983,
 Carnegie Mellon University). Gaussian is a federally registered
 trademark of Gaussian, Inc.
  
 This software contains proprietary and confidential information,
 including trade secrets, belonging to Gaussian, Inc.
  
 This software is provided under written license and may be
 used, copied, transmitted, or stored only in accord with that
 written license.
  
 The following legend is applicable only to US Government
 contracts under FAR:
  
                    RESTRICTED RIGHTS LEGEND
  
 Use, reproduction and disclosure by the US Government is
 subject to restrictions as set forth in subparagraphs (a)
 and (c) of the Commercial Computer Software - Restricted
 Rights clause in FAR 52.227-19.
  
 Gaussian, Inc.
 340 Quinnipiac St., Bldg. 40, Wallingford CT 06492
  
  
 ---------------------------------------------------------------
 Warning -- This program may not be used in any manner that
 competes with the business of Gaussian, Inc. or will provide
 assistance to any competitor of Gaussian, Inc.  The licensee
 of this program is prohibited from giving any competitor of
 Gaussian, Inc. access to this program.  By using this program,
 the user acknowledges that Gaussian, Inc. is engaged in the
 business of creating and licensing software in the field of
 computational chemistry and represents and warrants to the
 licensee that it is not a competitor of Gaussian, Inc. and that
 it will not use this program in any manner prohibited above.
 ---------------------------------------------------------------
  

 Cite this work as:
 Gaussian 16, Revision C.01,
 M. J. Frisch, G. W. Trucks, H. B. Schlegel, G. E. Scuseria, 
 M. A. Robb, J. R. Cheeseman, G. Scalmani, V. Barone, 
 G. A. Petersson, H. Nakatsuji, X. Li, M. Caricato, A. V. Marenich, 
 J. Bloino, B. G. Janesko, R. Gomperts, B. Mennucci, H. P. Hratchian, 
 J. V. Ortiz, A. F. Izmaylov, J. L. Sonnenberg, D. Williams-Young, 
 F. Ding, F. Lipparini, F. Egidi, J. Goings, B. Peng, A. Petrone, 
 T. Henderson, D. Ranasinghe, V. G. Zakrzewski, J. Gao, N. Rega, 
 G. Zheng, W. Liang, M. Hada, M. Ehara, K. Toyota, R. Fukuda, 
 J. Hasegawa, M. Ishida, T. Nakajima, Y. Honda, O. Kitao, H. Nakai, 
 T. Vreven, K. Throssell, J. A. Montgomery, Jr., J. E. Peralta, 
 F. Ogliaro, M. J. Bearpark, J. J. Heyd, E. N. Brothers, K. N. Kudin, 
 V. N. Staroverov, T. A. Keith, R. Kobayashi, J. Normand, 
 K. Raghavachari, A. P. Rendell, J. C. Burant, S. S. Iyengar, 
 J. Tomasi, M. Cossi, J. M. Millam, M. Klene, C. Adamo, R. Cammi, 
 J. W. Ochterski, R. L. Martin, K. Morokuma, O. Farkas, 
 J. B. Foresman, and D. J. Fox, Gaussian, Inc., Wallingford CT, 2019.
 
 ******************************************
 Gaussian 16:  ES64L-G16RevC.01  3-Jul-2019
                 8-Feb-2023 
 ******************************************
 %nproc=4
 Will use up to    4 processors via shared memory.
 %mem=5760MB
 %chk=gaussian_43_water_wb97_ptz.chk
 ------------------------------------
 #P wB97XD/6-311g** scf(maxcycle=200)
 ------------------------------------
 1/38=1,172=1/1;
 2/12=2,17=6,18=5,40=1/2;
 3/5=4,6=6,7=101,11=2,25=1,30=1,74=-58/1,2,3;
 4//1;
 5/5=2,7=200,38=5/2;
 6/7=2,8=2,9=2,10=2,28=1/1;
 99/5=1,9=1/99;
 Leave Link    1 at Wed Feb  8 14:40:35 2023, MaxMem=   754974720 cpu:               0.3 elap:               0.2
 (Enter /opt/cluster/programs/g16-c.01/g16/l101.exe)
 --------------
 Gaussian input
 --------------
 Symbolic Z-matrix:
 Charge =  0 Multiplicity = 1
 O                     0.        0.11751   0. 
 H                     0.71834  -0.43951   0. 
 H                    -0.62454  -0.67497   0. 
 
 ITRead=  0  0  0
 MicOpt= -1 -1 -1
 NAtoms=      3 NQM=        3 NQMF=       0 NMMI=      0 NMMIF=      0
                NMic=       0 NMicF=      0.
                    Isotopes and Nuclear Properties:
 (Nuclear quadrupole moments (NQMom) in fm**2, nuclear magnetic moments (NMagM)
  in nuclear magnetons)

  Atom         1           2           3
 IAtWgt=          16           1           1
 AtmWgt=  15.9949146   1.0078250   1.0078250
 NucSpn=           0           1           1
 AtZEff=  -0.0000000  -0.0000000  -0.0000000
 NQMom=    0.0000000   0.0000000   0.0000000
 NMagM=    0.0000000   2.7928460   2.7928460
 AtZNuc=   8.0000000   1.0000000   1.0000000
 Leave Link  101 at Wed Feb  8 14:40:35 2023, MaxMem=   754974720 cpu:               0.4 elap:               0.2
 (Enter /opt/cluster/programs/g16-c.01/g16/l202.exe)
                          Input orientation:                          
 ---------------------------------------------------------------------
 Center     Atomic      Atomic             Coordinates (Angstroms)
 Number     Number       Type             X           Y           Z
 ---------------------------------------------------------------------
      1          8           0        0.000000    0.117510    0.000000
      2          1           0        0.718337   -0.439511    0.000000
      3          1           0       -0.624543   -0.674972    0.000000
 ---------------------------------------------------------------------
                    Distance matrix (angstroms):
                    1          2          3
     1  O    0.000000
     2  H    0.909000   0.000000
     3  H    1.009000   1.363367   0.000000
 Stoichiometry    H2O
 Framework group  CS[SG(H2O)]
 Deg. of freedom     3
 Full point group                 CS      NOp   2
 Largest Abelian subgroup         CS      NOp   2
 Largest concise Abelian subgroup C1      NOp   1
                         Standard orientation:                         
 ---------------------------------------------------------------------
 Center     Atomic      Atomic             Coordinates (Angstroms)
 Number     Number       Type             X           Y           Z
 ---------------------------------------------------------------------
      1          8           0        0.000000    0.135276    0.000000
      2          1           0        0.677987   -0.470211    0.000000
      3          1           0       -0.677987   -0.611996    0.000000
 ---------------------------------------------------------------------
 Rotational constants (GHZ):         656.8898082         512.4289806         287.8679262
 Leave Link  202 at Wed Feb  8 14:40:35 2023, MaxMem=   754974720 cpu:               0.1 elap:               0.0
 (Enter /opt/cluster/programs/g16-c.01/g16/l301.exe)
 Standard basis: 6-311G(d,p) (5D, 7F)
 Ernie: Thresh=  0.10000D-02 Tol=  0.10000D-05 Strict=F.
 There are    24 symmetry adapted cartesian basis functions of A'  symmetry.
 There are     7 symmetry adapted cartesian basis functions of A"  symmetry.
 There are    23 symmetry adapted basis functions of A'  symmetry.
 There are     7 symmetry adapted basis functions of A"  symmetry.
    30 basis functions,    48 primitive gaussians,    31 cartesian basis functions
     5 alpha electrons        5 beta electrons
       nuclear repulsion energy         9.2410219845 Hartrees.
 IExCor= 4639 DFT=T Ex+Corr=wB97XD ExCW=0 ScaHFX=  1.000000
 ScaDFX=  1.000000  1.000000  1.000000  1.000000 ScalE2=  1.000000  1.000000
 IRadAn=      5 IRanWt=     -1 IRanGd=            0 ICorTp=0 IEmpDi=121
 HFx  wShort=  0.000000 wLong=  0.200000 cFull=  0.222036 cShort=  0.000000 cLong=  0.777964
 DFx  wShort=  0.000000 wLong=  0.200000 cFull=  0.000000 cShort=  0.000000 cLong=  1.000000
 NAtoms=    3 NActive=    3 NUniq=    3 SFac= 1.00D+00 NAtFMM=   60 NAOKFM=F Big=F
 Integral buffers will be    131072 words long.
 Raffenetti 2 integral format.
 Two-electron integral symmetry is turned on.
 R6Disp:  Grimme-D2 Dispersion energy=       -0.0000149210 Hartrees.
 Nuclear repulsion after empirical dispersion term =        9.2410070635 Hartrees.
 Leave Link  301 at Wed Feb  8 14:40:35 2023, MaxMem=   754974720 cpu:               0.2 elap:               0.1
 (Enter /opt/cluster/programs/g16-c.01/g16/l302.exe)
 NPDir=0 NMtPBC=     1 NCelOv=     1 NCel=       1 NClECP=     1 NCelD=      1
         NCelK=      1 NCelE2=     1 NClLst=     1 CellRange=     0.0.
 One-electron integrals computed using PRISM.
 One-electron integral symmetry used in STVInt
 NBasis=    30 RedAO= T EigKep=  1.70D-02  NBF=    23     7
 NBsUse=    30 1.00D-06 EigRej= -1.00D+00 NBFU=    23     7
 Precomputing XC quadrature grid using
 IXCGrd= 4 IRadAn=           5 IRanWt=          -1 IRanGd=           0 AccXCQ= 0.00D+00.
 Generated NRdTot=       0 NPtTot=           0 NUsed=           0 NTot=          32
 NSgBfM=    31    31    31    31    31 MxSgAt=     3 MxSgA2=     3.
 Leave Link  302 at Wed Feb  8 14:40:36 2023, MaxMem=   754974720 cpu:               1.2 elap:               0.4
 (Enter /opt/cluster/programs/g16-c.01/g16/l303.exe)
 DipDrv:  MaxL=1.
 Leave Link  303 at Wed Feb  8 14:40:36 2023, MaxMem=   754974720 cpu:               0.2 elap:               0.1
 (Enter /opt/cluster/programs/g16-c.01/g16/l401.exe)
 ExpMin= 1.03D-01 ExpMax= 8.59D+03 ExpMxC= 1.30D+03 IAcc=3 IRadAn=         5 AccDes= 0.00D+00
 Harris functional with IExCor= 4639 and IRadAn=       5 diagonalized for initial guess.
 HarFok:  IExCor= 4639 AccDes= 0.00D+00 IRadAn=         5 IDoV= 1 UseB2=F ITyADJ=14
 ICtDFT=  3500011 ScaDFX=  1.000000  1.000000  1.000000  1.000000
 FoFCou: FMM=F IPFlag=           0 FMFlag=      100000 FMFlg1=           0
         NFxFlg=           0 DoJE=T BraDBF=F KetDBF=T FulRan=T
         wScrn=  0.000000 ICntrl=       500 IOpCl=  0 I1Cent=   200000004 NGrid=           0
         NMat0=    1 NMatS0=      1 NMatT0=    0 NMatD0=    1 NMtDS0=    0 NMtDT0=    0
 Petite list used in FoFCou.
 Harris En= -73.6026687318026    
 JPrj=0 DoOrth=F DoCkMO=F.
 Initial guess orbital symmetries:
       Occupied  (A') (A') (A') (A') (A")
       Virtual   (A') (A') (A') (A') (A") (A') (A') (A') (A') (A")
                 (A") (A') (A') (A') (A') (A') (A") (A") (A') (A')
                 (A') (A") (A') (A') (A')
 The electronic state of the initial guess is 1-A'.
 Leave Link  401 at Wed Feb  8 14:40:37 2023, MaxMem=   754974720 cpu:               2.3 elap:               1.2
 (Enter /opt/cluster/programs/g16-c.01/g16/l502.exe)
 Keep R1 ints in memory in symmetry-blocked form, NReq=3688183.
 FoFCou: FMM=F IPFlag=           0 FMFlag=           0 FMFlg1=           0
         NFxFlg=           0 DoJE=F BraDBF=F KetDBF=F FulRan=T
         wScrn=  0.000000 ICntrl=       600 IOpCl=  0 I1Cent=           0 NGrid=           0
         NMat0=    1 NMatS0=    465 NMatT0=    0 NMatD0=    1 NMtDS0=    0 NMtDT0=    0
 Petite list used in FoFCou.
 Closed shell SCF:
 Using DIIS extrapolation, IDIIS=  1040.
 NGot=   754974720 LenX=   754911268 LenY=   754909866
 Requested convergence on RMS density matrix=1.00D-08 within 200 cycles.
 Requested convergence on MAX density matrix=1.00D-06.
 Requested convergence on             energy=1.00D-06.
 No special actions if energy rises.
 Integral accuracy reduced to 1.0D-05 until final iterations.

 Cycle   1  Pass 0  IDiag  1:
 E= -76.4028445427533    
 DIIS: error= 7.26D-02 at cycle   1 NSaved=   1.
 NSaved= 1 IEnMin= 1 EnMin= -76.4028445427533     IErMin= 1 ErrMin= 7.26D-02
 ErrMax= 7.26D-02  0.00D+00 EMaxC= 1.00D-01 BMatC= 1.29D-01 BMatP= 1.29D-01
 IDIUse=3 WtCom= 2.74D-01 WtEn= 7.26D-01
 Coeff-Com:  0.100D+01
 Coeff-En:   0.100D+01
 Coeff:      0.100D+01
 Gap=     0.489 Goal=   None    Shift=    0.000
 GapD=    0.489 DampG=2.000 DampE=0.500 DampFc=1.0000 IDamp=-1.
 RMSDP=2.97D-03 MaxDP=2.68D-02              OVMax= 3.81D-02

 Cycle   2  Pass 0  IDiag  1:
 E= -76.4130495810124     Delta-E=       -0.010205038259 Rises=F Damp=F
 DIIS: error= 6.54D-03 at cycle   2 NSaved=   2.
 NSaved= 2 IEnMin= 2 EnMin= -76.4130495810124     IErMin= 2 ErrMin= 6.54D-03
 ErrMax= 6.54D-03  0.00D+00 EMaxC= 1.00D-01 BMatC= 8.64D-04 BMatP= 1.29D-01
 IDIUse=3 WtCom= 9.35D-01 WtEn= 6.54D-02
 Coeff-Com:  0.445D-01 0.955D+00
 Coeff-En:   0.000D+00 0.100D+01
 Coeff:      0.416D-01 0.958D+00
 Gap=     0.510 Goal=   None    Shift=    0.000
 RMSDP=7.87D-04 MaxDP=1.15D-02 DE=-1.02D-02 OVMax= 9.43D-03

 Cycle   3  Pass 0  IDiag  1:
 E= -76.4132876831776     Delta-E=       -0.000238102165 Rises=F Damp=F
 DIIS: error= 4.36D-03 at cycle   3 NSaved=   3.
 NSaved= 3 IEnMin= 3 EnMin= -76.4132876831776     IErMin= 3 ErrMin= 4.36D-03
 ErrMax= 4.36D-03  0.00D+00 EMaxC= 1.00D-01 BMatC= 3.76D-04 BMatP= 8.64D-04
 IDIUse=3 WtCom= 9.56D-01 WtEn= 4.36D-02
 Coeff-Com:  0.203D-01 0.419D+00 0.561D+00
 Coeff-En:   0.000D+00 0.271D+00 0.729D+00
 Coeff:      0.195D-01 0.412D+00 0.568D+00
 Gap=     0.501 Goal=   None    Shift=    0.000
 RMSDP=3.62D-04 MaxDP=5.01D-03 DE=-2.38D-04 OVMax= 4.94D-03

 Cycle   4  Pass 0  IDiag  1:
 E= -76.4135130076793     Delta-E=       -0.000225324502 Rises=F Damp=F
 DIIS: error= 8.47D-04 at cycle   4 NSaved=   4.
 NSaved= 4 IEnMin= 4 EnMin= -76.4135130076793     IErMin= 4 ErrMin= 8.47D-04
 ErrMax= 8.47D-04  0.00D+00 EMaxC= 1.00D-01 BMatC= 1.47D-05 BMatP= 3.76D-04
 IDIUse=3 WtCom= 9.92D-01 WtEn= 8.47D-03
 Coeff-Com:  0.216D-02 0.620D-01 0.193D+00 0.743D+00
 Coeff-En:   0.000D+00 0.000D+00 0.000D+00 0.100D+01
 Coeff:      0.214D-02 0.614D-01 0.191D+00 0.745D+00
 Gap=     0.503 Goal=   None    Shift=    0.000
 RMSDP=6.39D-05 MaxDP=9.19D-04 DE=-2.25D-04 OVMax= 7.71D-04

 Cycle   5  Pass 0  IDiag  1:
 E= -76.4135219300006     Delta-E=       -0.000008922321 Rises=F Damp=F
 DIIS: error= 5.38D-05 at cycle   5 NSaved=   5.
 NSaved= 5 IEnMin= 5 EnMin= -76.4135219300006     IErMin= 5 ErrMin= 5.38D-05
 ErrMax= 5.38D-05  0.00D+00 EMaxC= 1.00D-01 BMatC= 1.01D-07 BMatP= 1.47D-05
 IDIUse=1 WtCom= 1.00D+00 WtEn= 0.00D+00
 Coeff-Com: -0.754D-03-0.191D-01-0.252D-01-0.102D-01 0.106D+01
 Coeff:     -0.754D-03-0.191D-01-0.252D-01-0.102D-01 0.106D+01
 Gap=     0.503 Goal=   None    Shift=    0.000
 RMSDP=1.44D-05 MaxDP=1.30D-04 DE=-8.92D-06 OVMax= 2.84D-04

 Cycle   6  Pass 0  IDiag  1:
 E= -76.4135220937162     Delta-E=       -0.000000163716 Rises=F Damp=F
 DIIS: error= 1.26D-05 at cycle   6 NSaved=   6.
 NSaved= 6 IEnMin= 6 EnMin= -76.4135220937162     IErMin= 6 ErrMin= 1.26D-05
 ErrMax= 1.26D-05  0.00D+00 EMaxC= 1.00D-01 BMatC= 3.45D-09 BMatP= 1.01D-07
 IDIUse=1 WtCom= 1.00D+00 WtEn= 0.00D+00
 Coeff-Com:  0.103D-03 0.218D-02 0.352D-02-0.111D-01-0.186D+00 0.119D+01
 Coeff:      0.103D-03 0.218D-02 0.352D-02-0.111D-01-0.186D+00 0.119D+01
 Gap=     0.503 Goal=   None    Shift=    0.000
 RMSDP=3.57D-06 MaxDP=3.82D-05 DE=-1.64D-07 OVMax= 6.89D-05

 Initial convergence to 1.0D-05 achieved.  Increase integral accuracy.
 Cycle   7  Pass 1  IDiag  1:
 E= -76.4135189183083     Delta-E=        0.000003175408 Rises=F Damp=F
 DIIS: error= 1.30D-05 at cycle   1 NSaved=   1.
 NSaved= 1 IEnMin= 1 EnMin= -76.4135189183083     IErMin= 1 ErrMin= 1.30D-05
 ErrMax= 1.30D-05  0.00D+00 EMaxC= 1.00D-01 BMatC= 6.49D-09 BMatP= 6.49D-09
 IDIUse=1 WtCom= 1.00D+00 WtEn= 0.00D+00
 Coeff-Com:  0.100D+01
 Coeff:      0.100D+01
 Gap=     0.503 Goal=   None    Shift=    0.000
 RMSDP=3.57D-06 MaxDP=3.82D-05 DE= 3.18D-06 OVMax= 2.15D-05

 Cycle   8  Pass 1  IDiag  1:
 E= -76.4135189230603     Delta-E=       -0.000000004752 Rises=F Damp=F
 DIIS: error= 2.24D-06 at cycle   2 NSaved=   2.
 NSaved= 2 IEnMin= 2 EnMin= -76.4135189230603     IErMin= 2 ErrMin= 2.24D-06
 ErrMax= 2.24D-06  0.00D+00 EMaxC= 1.00D-01 BMatC= 1.62D-10 BMatP= 6.49D-09
 IDIUse=1 WtCom= 1.00D+00 WtEn= 0.00D+00
 Coeff-Com: -0.461D-01 0.105D+01
 Coeff:     -0.461D-01 0.105D+01
 Gap=     0.503 Goal=   None    Shift=    0.000
 RMSDP=4.68D-07 MaxDP=4.46D-06 DE=-4.75D-09 OVMax= 6.08D-06

 Cycle   9  Pass 1  IDiag  1:
 E= -76.4135189231323     Delta-E=       -0.000000000072 Rises=F Damp=F
 DIIS: error= 2.40D-06 at cycle   3 NSaved=   3.
 NSaved= 3 IEnMin= 3 EnMin= -76.4135189231323     IErMin= 2 ErrMin= 2.24D-06
 ErrMax= 2.40D-06  0.00D+00 EMaxC= 1.00D-01 BMatC= 1.38D-10 BMatP= 1.62D-10
 IDIUse=1 WtCom= 1.00D+00 WtEn= 0.00D+00
 Coeff-Com: -0.422D-01 0.522D+00 0.520D+00
 Coeff:     -0.422D-01 0.522D+00 0.520D+00
 Gap=     0.503 Goal=   None    Shift=    0.000
 RMSDP=1.97D-07 MaxDP=2.87D-06 DE=-7.21D-11 OVMax= 2.71D-06

 Cycle  10  Pass 1  IDiag  1:
 E= -76.4135189232185     Delta-E=       -0.000000000086 Rises=F Damp=F
 DIIS: error= 1.78D-07 at cycle   4 NSaved=   4.
 NSaved= 4 IEnMin= 4 EnMin= -76.4135189232185     IErMin= 4 ErrMin= 1.78D-07
 ErrMax= 1.78D-07  0.00D+00 EMaxC= 1.00D-01 BMatC= 8.22D-13 BMatP= 1.38D-10
 IDIUse=1 WtCom= 1.00D+00 WtEn= 0.00D+00
 Coeff-Com:  0.131D-02-0.537D-01 0.546D-02 0.105D+01
 Coeff:      0.131D-02-0.537D-01 0.546D-02 0.105D+01
 Gap=     0.503 Goal=   None    Shift=    0.000
 RMSDP=4.65D-08 MaxDP=3.78D-07 DE=-8.62D-11 OVMax= 8.05D-07

 Cycle  11  Pass 1  IDiag  1:
 E= -76.4135189232200     Delta-E=       -0.000000000002 Rises=F Damp=F
 DIIS: error= 3.47D-08 at cycle   5 NSaved=   5.
 NSaved= 5 IEnMin= 5 EnMin= -76.4135189232200     IErMin= 5 ErrMin= 3.47D-08
 ErrMax= 3.47D-08  0.00D+00 EMaxC= 1.00D-01 BMatC= 2.86D-14 BMatP= 8.22D-13
 IDIUse=1 WtCom= 1.00D+00 WtEn= 0.00D+00
 Coeff-Com:  0.133D-02-0.129D-01-0.967D-02-0.812D-01 0.110D+01
 Coeff:      0.133D-02-0.129D-01-0.967D-02-0.812D-01 0.110D+01
 Gap=     0.503 Goal=   None    Shift=    0.000
 RMSDP=1.34D-08 MaxDP=1.38D-07 DE=-1.51D-12 OVMax= 2.50D-07

 Cycle  12  Pass 1  IDiag  1:
 E= -76.4135189232201     Delta-E=       -0.000000000000 Rises=F Damp=F
 DIIS: error= 7.16D-09 at cycle   6 NSaved=   6.
 NSaved= 6 IEnMin= 6 EnMin= -76.4135189232201     IErMin= 6 ErrMin= 7.16D-09
 ErrMax= 7.16D-09  0.00D+00 EMaxC= 1.00D-01 BMatC= 1.38D-15 BMatP= 2.86D-14
 IDIUse=1 WtCom= 1.00D+00 WtEn= 0.00D+00
 Coeff-Com: -0.241D-04 0.199D-02 0.637D-03-0.437D-01-0.304D-01 0.107D+01
 Coeff:     -0.241D-04 0.199D-02 0.637D-03-0.437D-01-0.304D-01 0.107D+01
 Gap=     0.503 Goal=   None    Shift=    0.000
 RMSDP=2.66D-09 MaxDP=2.55D-08 DE=-1.42D-13 OVMax= 5.33D-08

 SCF Done:  E(RwB97XD) =  -76.4135189232     A.U. after   12 cycles
            NFock= 12  Conv=0.27D-08     -V/T= 2.0010
 KE= 7.633570827805D+01 PE=-1.995976853539D+02 EE= 3.760745108913D+01
 Leave Link  502 at Wed Feb  8 14:40:42 2023, MaxMem=   754974720 cpu:              11.0 elap:               5.5
 (Enter /opt/cluster/programs/g16-c.01/g16/l601.exe)
 Copying SCF densities to generalized density rwf, IOpCl= 0 IROHF=0.

 **********************************************************************

            Population analysis using the SCF Density.

 **********************************************************************

 Orbital symmetries:
       Occupied  (A') (A') (A') (A') (A")
       Virtual   (A') (A') (A') (A') (A") (A') (A') (A') (A') (A")
                 (A") (A') (A') (A') (A') (A') (A") (A") (A') (A')
                 (A') (A") (A') (A') (A')
 The electronic state is 1-A'.
 Alpha  occ. eigenvalues --  -19.23221  -1.11716  -0.58305  -0.49132  -0.39055
 Alpha virt. eigenvalues --    0.11214   0.19333   0.43911   0.54366   0.85258
 Alpha virt. eigenvalues --    0.85767   0.95875   1.15847   1.17439   1.40332
 Alpha virt. eigenvalues --    1.46673   1.84430   1.94829   2.19143   2.40432
 Alpha virt. eigenvalues --    2.63174   3.17317   3.28963   3.37533   3.64269
 Alpha virt. eigenvalues --    3.98813   4.87869   5.36485   5.64289  49.98702
          Condensed to atoms (all electrons):
               1          2          3
     1  O    7.845782   0.305320   0.288663
     2  H    0.305320   0.506977  -0.034159
     3  H    0.288663  -0.034159   0.527592
 Mulliken charges:
               1
     1  O   -0.439765
     2  H    0.221861
     3  H    0.217904
 Sum of Mulliken charges =  -0.00000
 Mulliken charges with hydrogens summed into heavy atoms:
               1
     1  O   -0.000000
 Electronic spatial extent (au):  <R**2>=             19.0433
 Charge=             -0.0000 electrons
 Dipole moment (field-independent basis, Debye):
    X=              0.0939    Y=             -2.2597    Z=              0.0000  Tot=              2.2616
 Quadrupole moment (field-independent basis, Debye-Ang):
   XX=             -4.8397   YY=             -5.6367   ZZ=             -7.1575
   XY=              0.1668   XZ=              0.0000   YZ=              0.0000
 Traceless Quadrupole moment (field-independent basis, Debye-Ang):
   XX=              1.0382   YY=              0.2413   ZZ=             -1.2795
   XY=              0.1668   XZ=              0.0000   YZ=              0.0000
 Octapole moment (field-independent basis, Debye-Ang**2):
  XXX=              0.2103  YYY=             -1.4889  ZZZ=              0.0000  XYY=             -0.1159
  XXY=             -1.1353  XXZ=              0.0000  XZZ=              0.0713  YZZ=             -0.3614
  YYZ=              0.0000  XYZ=              0.0000
 Hexadecapole moment (field-independent basis, Debye-Ang**3):
 XXXX=             -6.1683 YYYY=             -6.4369 ZZZZ=             -5.2168 XXXY=             -0.1240
 XXXZ=              0.0000 YYYX=             -0.0203 YYYZ=              0.0000 ZZZX=              0.0000
 ZZZY=              0.0000 XXYY=             -1.6743 XXZZ=             -2.0666 YYZZ=             -2.0410
 XXYZ=              0.0000 YYXZ=              0.0000 ZZXY=             -0.0730
 N-N= 9.241007063478D+00 E-N=-1.995976854132D+02  KE= 7.633570827805D+01
 Symmetry A'   KE= 7.168439426397D+01
 Symmetry A"   KE= 4.651314014079D+00
 No NMR shielding tensors so no spin-rotation constants.
 Leave Link  601 at Wed Feb  8 14:40:43 2023, MaxMem=   754974720 cpu:               1.4 elap:               0.7
 (Enter /opt/cluster/programs/g16-c.01/g16/l9999.exe)
 Unable to Open any file for archive entry.
 1\1\GINC-NODE63\SP\RwB97XD\6-311G(d,p)\H2O1\BOITTIER\08-Feb-2023\0\\#P
  wB97XD/6-311g** scf(maxcycle=200)\\Gaussian input\\0,1\O,0,0.,0.11751
 ,0.\H,0,0.7183372325,-0.4395112028,0.\H,0,-0.624542997,-0.6749715738,0
 .\\Version=ES64L-G16RevC.01\State=1-A'\HF=-76.4135189\RMSD=2.662e-09\D
 ipole=0.0984985,-0.8843177,0.\Quadrupole=0.7519021,0.1993693,-0.951271
 4,0.1638132,0.,0.\PG=CS [SG(H2O1)]\\@
 The archive entry for this job was punched.


 RESEARCH IS WHAT I AM DOING WHEN I DON'T KNOW WHAT I AM DOING.
     -- WERNER VON BRAUN
 Job cpu time:       0 days  0 hours  0 minutes 17.3 seconds.
 Elapsed time:       0 days  0 hours  0 minutes  8.4 seconds.
 File lengths (MBytes):  RWF=      6 Int=      0 D2E=      0 Chk=      1 Scr=      1
 Normal termination of Gaussian 16 at Wed Feb  8 14:40:43 2023.
