 Entering Gaussian System, Link 0=/opt/cluster/programs/g16-c.01/g16/g16
 Input=/scratch/boittier/jobs/tmp.7262368/gaussian_73_water_b3lyp_pdz.com
 Output=/scratch/boittier/jobs/tmp.7262368/gaussian_73_water_b3lyp_pdz.out
 Initial command:
 /opt/cluster/programs/g16-c.01/g16/l1.exe "/scratch/boittier/jobs/tmp.7262368/Gau-120843.inp" -scrdir="/scratch/boittier/jobs/tmp.7262368/"
 Entering Link 1 = /opt/cluster/programs/g16-c.01/g16/l1.exe PID=    120844.
  
 Copyright (c) 1988-2019, Gaussian, Inc.  All Rights Reserved.
  
 This is part of the Gaussian(R) 16 program.  It is based on
 the Gaussian(R) 09 system (copyright 2009, Gaussian, Inc.),
 the Gaussian(R) 03 system (copyright 2003, Gaussian, Inc.),
 the Gaussian(R) 98 system (copyright 1998, Gaussian, Inc.),
 the Gaussian(R) 94 system (copyright 1995, Gaussian, Inc.),
 the Gaussian 92(TM) system (copyright 1992, Gaussian, Inc.),
 the Gaussian 90(TM) system (copyright 1990, Gaussian, Inc.),
 the Gaussian 88(TM) system (copyright 1988, Gaussian, Inc.),
 the Gaussian 86(TM) system (copyright 1986, Carnegie Mellon
 University), and the Gaussian 82(TM) system (copyright 1983,
 Carnegie Mellon University). Gaussian is a federally registered
 trademark of Gaussian, Inc.
  
 This software contains proprietary and confidential information,
 including trade secrets, belonging to Gaussian, Inc.
  
 This software is provided under written license and may be
 used, copied, transmitted, or stored only in accord with that
 written license.
  
 The following legend is applicable only to US Government
 contracts under FAR:
  
                    RESTRICTED RIGHTS LEGEND
  
 Use, reproduction and disclosure by the US Government is
 subject to restrictions as set forth in subparagraphs (a)
 and (c) of the Commercial Computer Software - Restricted
 Rights clause in FAR 52.227-19.
  
 Gaussian, Inc.
 340 Quinnipiac St., Bldg. 40, Wallingford CT 06492
  
  
 ---------------------------------------------------------------
 Warning -- This program may not be used in any manner that
 competes with the business of Gaussian, Inc. or will provide
 assistance to any competitor of Gaussian, Inc.  The licensee
 of this program is prohibited from giving any competitor of
 Gaussian, Inc. access to this program.  By using this program,
 the user acknowledges that Gaussian, Inc. is engaged in the
 business of creating and licensing software in the field of
 computational chemistry and represents and warrants to the
 licensee that it is not a competitor of Gaussian, Inc. and that
 it will not use this program in any manner prohibited above.
 ---------------------------------------------------------------
  

 Cite this work as:
 Gaussian 16, Revision C.01,
 M. J. Frisch, G. W. Trucks, H. B. Schlegel, G. E. Scuseria, 
 M. A. Robb, J. R. Cheeseman, G. Scalmani, V. Barone, 
 G. A. Petersson, H. Nakatsuji, X. Li, M. Caricato, A. V. Marenich, 
 J. Bloino, B. G. Janesko, R. Gomperts, B. Mennucci, H. P. Hratchian, 
 J. V. Ortiz, A. F. Izmaylov, J. L. Sonnenberg, D. Williams-Young, 
 F. Ding, F. Lipparini, F. Egidi, J. Goings, B. Peng, A. Petrone, 
 T. Henderson, D. Ranasinghe, V. G. Zakrzewski, J. Gao, N. Rega, 
 G. Zheng, W. Liang, M. Hada, M. Ehara, K. Toyota, R. Fukuda, 
 J. Hasegawa, M. Ishida, T. Nakajima, Y. Honda, O. Kitao, H. Nakai, 
 T. Vreven, K. Throssell, J. A. Montgomery, Jr., J. E. Peralta, 
 F. Ogliaro, M. J. Bearpark, J. J. Heyd, E. N. Brothers, K. N. Kudin, 
 V. N. Staroverov, T. A. Keith, R. Kobayashi, J. Normand, 
 K. Raghavachari, A. P. Rendell, J. C. Burant, S. S. Iyengar, 
 J. Tomasi, M. Cossi, J. M. Millam, M. Klene, C. Adamo, R. Cammi, 
 J. W. Ochterski, R. L. Martin, K. Morokuma, O. Farkas, 
 J. B. Foresman, and D. J. Fox, Gaussian, Inc., Wallingford CT, 2019.
 
 ******************************************
 Gaussian 16:  ES64L-G16RevC.01  3-Jul-2019
                 8-Feb-2023 
 ******************************************
 %nproc=4
 Will use up to    4 processors via shared memory.
 %mem=5760MB
 %chk=gaussian_73_water_b3lyp_pdz.chk
 ---------------------------------
 #P B3LYP/6-31g* scf(maxcycle=200)
 ---------------------------------
 1/38=1,172=1/1;
 2/12=2,17=6,18=5,40=1/2;
 3/5=1,6=6,7=1,11=2,25=1,30=1,74=-5/1,2,3;
 4//1;
 5/5=2,7=200,38=5/2;
 6/7=2,8=2,9=2,10=2,28=1/1;
 99/5=1,9=1/99;
 Leave Link    1 at Wed Feb  8 14:50:49 2023, MaxMem=   754974720 cpu:               0.1 elap:               0.0
 (Enter /opt/cluster/programs/g16-c.01/g16/l101.exe)
 --------------
 Gaussian input
 --------------
 Symbolic Z-matrix:
 Charge =  0 Multiplicity = 1
 O                     0.        0.11751   0. 
 H                     0.75785  -0.47015   0. 
 H                    -0.7729   -0.36094   0. 
 
 ITRead=  0  0  0
 MicOpt= -1 -1 -1
 NAtoms=      3 NQM=        3 NQMF=       0 NMMI=      0 NMMIF=      0
                NMic=       0 NMicF=      0.
                    Isotopes and Nuclear Properties:
 (Nuclear quadrupole moments (NQMom) in fm**2, nuclear magnetic moments (NMagM)
  in nuclear magnetons)

  Atom         1           2           3
 IAtWgt=          16           1           1
 AtmWgt=  15.9949146   1.0078250   1.0078250
 NucSpn=           0           1           1
 AtZEff=  -0.0000000  -0.0000000  -0.0000000
 NQMom=    0.0000000   0.0000000   0.0000000
 NMagM=    0.0000000   2.7928460   2.7928460
 AtZNuc=   8.0000000   1.0000000   1.0000000
 Leave Link  101 at Wed Feb  8 14:50:49 2023, MaxMem=   754974720 cpu:               0.6 elap:               0.2
 (Enter /opt/cluster/programs/g16-c.01/g16/l202.exe)
                          Input orientation:                          
 ---------------------------------------------------------------------
 Center     Atomic      Atomic             Coordinates (Angstroms)
 Number     Number       Type             X           Y           Z
 ---------------------------------------------------------------------
      1          8           0        0.000000    0.117510    0.000000
      2          1           0        0.757850   -0.470150    0.000000
      3          1           0       -0.772896   -0.360938    0.000000
 ---------------------------------------------------------------------
                    Distance matrix (angstroms):
                    1          2          3
     1  O    0.000000
     2  H    0.959000   0.000000
     3  H    0.909000   1.534637   0.000000
 Stoichiometry    H2O
 Framework group  CS[SG(H2O)]
 Deg. of freedom     3
 Full point group                 CS      NOp   2
 Largest Abelian subgroup         CS      NOp   2
 Largest concise Abelian subgroup C1      NOp   1
                         Standard orientation:                         
 ---------------------------------------------------------------------
 Center     Atomic      Atomic             Coordinates (Angstroms)
 Number     Number       Type             X           Y           Z
 ---------------------------------------------------------------------
      1          8           0        0.000000    0.106621   -0.000000
      2          1           0        0.766067   -0.470286   -0.000000
      3          1           0       -0.766067   -0.382686    0.000000
 ---------------------------------------------------------------------
 Rotational constants (GHZ):         999.0595410         424.8101547         298.0684535
 Leave Link  202 at Wed Feb  8 14:50:49 2023, MaxMem=   754974720 cpu:               0.1 elap:               0.0
 (Enter /opt/cluster/programs/g16-c.01/g16/l301.exe)
 Standard basis: 6-31G(d) (6D, 7F)
 Ernie: Thresh=  0.10000D-02 Tol=  0.10000D-05 Strict=F.
 There are    15 symmetry adapted cartesian basis functions of A'  symmetry.
 There are     4 symmetry adapted cartesian basis functions of A"  symmetry.
 There are    15 symmetry adapted basis functions of A'  symmetry.
 There are     4 symmetry adapted basis functions of A"  symmetry.
    19 basis functions,    36 primitive gaussians,    19 cartesian basis functions
     5 alpha electrons        5 beta electrons
       nuclear repulsion energy         9.4164560686 Hartrees.
 IExCor=  402 DFT=T Ex+Corr=B3LYP ExCW=0 ScaHFX=  0.200000
 ScaDFX=  0.800000  0.720000  1.000000  0.810000 ScalE2=  1.000000  1.000000
 IRadAn=      5 IRanWt=     -1 IRanGd=            0 ICorTp=0 IEmpDi=  4
 NAtoms=    3 NActive=    3 NUniq=    3 SFac= 1.00D+00 NAtFMM=   60 NAOKFM=F Big=F
 Integral buffers will be    131072 words long.
 Raffenetti 2 integral format.
 Two-electron integral symmetry is turned on.
 Leave Link  301 at Wed Feb  8 14:50:49 2023, MaxMem=   754974720 cpu:               0.1 elap:               0.0
 (Enter /opt/cluster/programs/g16-c.01/g16/l302.exe)
 NPDir=0 NMtPBC=     1 NCelOv=     1 NCel=       1 NClECP=     1 NCelD=      1
         NCelK=      1 NCelE2=     1 NClLst=     1 CellRange=     0.0.
 One-electron integrals computed using PRISM.
 One-electron integral symmetry used in STVInt
 NBasis=    19 RedAO= T EigKep=  2.14D-02  NBF=    15     4
 NBsUse=    19 1.00D-06 EigRej= -1.00D+00 NBFU=    15     4
 Precomputing XC quadrature grid using
 IXCGrd= 4 IRadAn=           5 IRanWt=          -1 IRanGd=           0 AccXCQ= 0.00D+00.
 Generated NRdTot=       0 NPtTot=           0 NUsed=           0 NTot=          32
 NSgBfM=    19    19    19    19    19 MxSgAt=     3 MxSgA2=     3.
 Leave Link  302 at Wed Feb  8 14:50:49 2023, MaxMem=   754974720 cpu:               0.4 elap:               0.1
 (Enter /opt/cluster/programs/g16-c.01/g16/l303.exe)
 DipDrv:  MaxL=1.
 Leave Link  303 at Wed Feb  8 14:50:49 2023, MaxMem=   754974720 cpu:               0.1 elap:               0.0
 (Enter /opt/cluster/programs/g16-c.01/g16/l401.exe)
 ExpMin= 1.61D-01 ExpMax= 5.48D+03 ExpMxC= 8.25D+02 IAcc=3 IRadAn=         5 AccDes= 0.00D+00
 Harris functional with IExCor=  402 and IRadAn=       5 diagonalized for initial guess.
 HarFok:  IExCor=  402 AccDes= 0.00D+00 IRadAn=         5 IDoV= 1 UseB2=F ITyADJ=14
 ICtDFT=  3500011 ScaDFX=  1.000000  1.000000  1.000000  1.000000
 FoFCou: FMM=F IPFlag=           0 FMFlag=      100000 FMFlg1=           0
         NFxFlg=           0 DoJE=T BraDBF=F KetDBF=T FulRan=T
         wScrn=  0.000000 ICntrl=       500 IOpCl=  0 I1Cent=   200000004 NGrid=           0
         NMat0=    1 NMatS0=      1 NMatT0=    0 NMatD0=    1 NMtDS0=    0 NMtDT0=    0
 Petite list used in FoFCou.
 Harris En= -76.4468850083402    
 JPrj=0 DoOrth=F DoCkMO=F.
 Initial guess orbital symmetries:
       Occupied  (A') (A') (A') (A') (A")
       Virtual   (A') (A') (A') (A') (A") (A') (A') (A') (A") (A')
                 (A") (A') (A') (A')
 The electronic state of the initial guess is 1-A'.
 Leave Link  401 at Wed Feb  8 14:50:49 2023, MaxMem=   754974720 cpu:               0.5 elap:               0.1
 (Enter /opt/cluster/programs/g16-c.01/g16/l502.exe)
 Keep R1 ints in memory in symmetry-blocked form, NReq=3470963.
 FoFCou: FMM=F IPFlag=           0 FMFlag=           0 FMFlg1=           0
         NFxFlg=           0 DoJE=F BraDBF=F KetDBF=F FulRan=T
         wScrn=  0.000000 ICntrl=       600 IOpCl=  0 I1Cent=           0 NGrid=           0
         NMat0=    1 NMatS0=    190 NMatT0=    0 NMatD0=    1 NMtDS0=    0 NMtDT0=    0
 Petite list used in FoFCou.
 Closed shell SCF:
 Using DIIS extrapolation, IDIIS=  1040.
 NGot=   754974720 LenX=   754962225 LenY=   754961343
 Requested convergence on RMS density matrix=1.00D-08 within 200 cycles.
 Requested convergence on MAX density matrix=1.00D-06.
 Requested convergence on             energy=1.00D-06.
 No special actions if energy rises.
 Integral accuracy reduced to 1.0D-05 until final iterations.

 Cycle   1  Pass 0  IDiag  1:
 E= -76.3216087526643    
 DIIS: error= 8.10D-02 at cycle   1 NSaved=   1.
 NSaved= 1 IEnMin= 1 EnMin= -76.3216087526643     IErMin= 1 ErrMin= 8.10D-02
 ErrMax= 8.10D-02  0.00D+00 EMaxC= 1.00D-01 BMatC= 1.13D-01 BMatP= 1.13D-01
 IDIUse=3 WtCom= 1.90D-01 WtEn= 8.10D-01
 Coeff-Com:  0.100D+01
 Coeff-En:   0.100D+01
 Coeff:      0.100D+01
 Gap=     0.216 Goal=   None    Shift=    0.000
 GapD=    0.216 DampG=1.000 DampE=0.500 DampFc=0.5000 IDamp=-1.
 Damping current iteration by 5.00D-01
 RMSDP=2.93D-02 MaxDP=2.10D-01              OVMax= 1.95D-01

 Cycle   2  Pass 0  IDiag  1:
 E= -76.3519518683022     Delta-E=       -0.030343115638 Rises=F Damp=T
 DIIS: error= 1.73D-02 at cycle   2 NSaved=   2.
 NSaved= 2 IEnMin= 2 EnMin= -76.3519518683022     IErMin= 2 ErrMin= 1.73D-02
 ErrMax= 1.73D-02  0.00D+00 EMaxC= 1.00D-01 BMatC= 5.46D-03 BMatP= 1.13D-01
 IDIUse=3 WtCom= 8.27D-01 WtEn= 1.73D-01
 Coeff-Com:  0.164D+00 0.836D+00
 Coeff-En:   0.272D+00 0.728D+00
 Coeff:      0.183D+00 0.817D+00
 Gap=     0.350 Goal=   None    Shift=    0.000
 RMSDP=3.35D-03 MaxDP=3.42D-02 DE=-3.03D-02 OVMax= 1.08D-01

 Cycle   3  Pass 0  IDiag  1:
 E= -76.4042591945520     Delta-E=       -0.052307326250 Rises=F Damp=F
 DIIS: error= 2.69D-03 at cycle   3 NSaved=   3.
 NSaved= 3 IEnMin= 3 EnMin= -76.4042591945520     IErMin= 3 ErrMin= 2.69D-03
 ErrMax= 2.69D-03  0.00D+00 EMaxC= 1.00D-01 BMatC= 1.45D-04 BMatP= 5.46D-03
 IDIUse=3 WtCom= 9.73D-01 WtEn= 2.69D-02
 Coeff-Com:  0.322D-01-0.401D-03 0.968D+00
 Coeff-En:   0.000D+00 0.000D+00 0.100D+01
 Coeff:      0.314D-01-0.391D-03 0.969D+00
 Gap=     0.364 Goal=   None    Shift=    0.000
 RMSDP=3.89D-04 MaxDP=3.02D-03 DE=-5.23D-02 OVMax= 2.66D-03

 Cycle   4  Pass 0  IDiag  1:
 E= -76.4043557594287     Delta-E=       -0.000096564877 Rises=F Damp=F
 DIIS: error= 3.34D-04 at cycle   4 NSaved=   4.
 NSaved= 4 IEnMin= 4 EnMin= -76.4043557594287     IErMin= 4 ErrMin= 3.34D-04
 ErrMax= 3.34D-04  0.00D+00 EMaxC= 1.00D-01 BMatC= 2.09D-06 BMatP= 1.45D-04
 IDIUse=3 WtCom= 9.97D-01 WtEn= 3.34D-03
 Coeff-Com:  0.521D-02-0.157D-01 0.212D+00 0.799D+00
 Coeff-En:   0.000D+00 0.000D+00 0.000D+00 0.100D+01
 Coeff:      0.519D-02-0.157D-01 0.211D+00 0.799D+00
 Gap=     0.364 Goal=   None    Shift=    0.000
 RMSDP=3.72D-05 MaxDP=1.84D-04 DE=-9.66D-05 OVMax= 2.55D-04

 Cycle   5  Pass 0  IDiag  1:
 E= -76.4043572378807     Delta-E=       -0.000001478452 Rises=F Damp=F
 DIIS: error= 4.69D-05 at cycle   5 NSaved=   5.
 NSaved= 5 IEnMin= 5 EnMin= -76.4043572378807     IErMin= 5 ErrMin= 4.69D-05
 ErrMax= 4.69D-05  0.00D+00 EMaxC= 1.00D-01 BMatC= 3.04D-08 BMatP= 2.09D-06
 IDIUse=1 WtCom= 1.00D+00 WtEn= 0.00D+00
 Coeff-Com:  0.458D-03-0.305D-03 0.245D-03-0.419D-02 0.100D+01
 Coeff:      0.458D-03-0.305D-03 0.245D-03-0.419D-02 0.100D+01
 Gap=     0.364 Goal=   None    Shift=    0.000
 RMSDP=6.61D-06 MaxDP=5.57D-05 DE=-1.48D-06 OVMax= 3.71D-05

 Initial convergence to 1.0D-05 achieved.  Increase integral accuracy.
 Cycle   6  Pass 1  IDiag  1:
 E= -76.4043580625352     Delta-E=       -0.000000824654 Rises=F Damp=F
 DIIS: error= 1.40D-06 at cycle   1 NSaved=   1.
 NSaved= 1 IEnMin= 1 EnMin= -76.4043580625352     IErMin= 1 ErrMin= 1.40D-06
 ErrMax= 1.40D-06  0.00D+00 EMaxC= 1.00D-01 BMatC= 3.21D-11 BMatP= 3.21D-11
 IDIUse=1 WtCom= 1.00D+00 WtEn= 0.00D+00
 Coeff-Com:  0.100D+01
 Coeff:      0.100D+01
 Gap=     0.364 Goal=   None    Shift=    0.000
 RMSDP=6.61D-06 MaxDP=5.57D-05 DE=-8.25D-07 OVMax= 2.97D-06

 Cycle   7  Pass 1  IDiag  1:
 E= -76.4043580625571     Delta-E=       -0.000000000022 Rises=F Damp=F
 DIIS: error= 6.54D-07 at cycle   2 NSaved=   2.
 NSaved= 2 IEnMin= 2 EnMin= -76.4043580625571     IErMin= 2 ErrMin= 6.54D-07
 ErrMax= 6.54D-07  0.00D+00 EMaxC= 1.00D-01 BMatC= 8.48D-12 BMatP= 3.21D-11
 IDIUse=1 WtCom= 1.00D+00 WtEn= 0.00D+00
 Coeff-Com:  0.333D+00 0.667D+00
 Coeff:      0.333D+00 0.667D+00
 Gap=     0.364 Goal=   None    Shift=    0.000
 RMSDP=1.28D-07 MaxDP=5.64D-07 DE=-2.19D-11 OVMax= 9.68D-07

 Cycle   8  Pass 1  IDiag  1:
 E= -76.4043580625633     Delta-E=       -0.000000000006 Rises=F Damp=F
 DIIS: error= 2.27D-07 at cycle   3 NSaved=   3.
 NSaved= 3 IEnMin= 3 EnMin= -76.4043580625633     IErMin= 3 ErrMin= 2.27D-07
 ErrMax= 2.27D-07  0.00D+00 EMaxC= 1.00D-01 BMatC= 8.17D-13 BMatP= 8.48D-12
 IDIUse=1 WtCom= 1.00D+00 WtEn= 0.00D+00
 Coeff-Com:  0.157D+00 0.363D+00 0.480D+00
 Coeff:      0.157D+00 0.363D+00 0.480D+00
 Gap=     0.364 Goal=   None    Shift=    0.000
 RMSDP=3.08D-08 MaxDP=2.16D-07 DE=-6.25D-12 OVMax= 2.09D-07

 Cycle   9  Pass 1  IDiag  1:
 E= -76.4043580625639     Delta-E=       -0.000000000001 Rises=F Damp=F
 DIIS: error= 1.66D-08 at cycle   4 NSaved=   4.
 NSaved= 4 IEnMin= 4 EnMin= -76.4043580625639     IErMin= 4 ErrMin= 1.66D-08
 ErrMax= 1.66D-08  0.00D+00 EMaxC= 1.00D-01 BMatC= 5.27D-15 BMatP= 8.17D-13
 IDIUse=1 WtCom= 1.00D+00 WtEn= 0.00D+00
 Coeff-Com: -0.144D-01-0.181D-01 0.553D-01 0.977D+00
 Coeff:     -0.144D-01-0.181D-01 0.553D-01 0.977D+00
 Gap=     0.364 Goal=   None    Shift=    0.000
 RMSDP=4.57D-09 MaxDP=2.56D-08 DE=-5.26D-13 OVMax= 4.07D-08

 SCF Done:  E(RB3LYP) =  -76.4043580626     A.U. after    9 cycles
            NFock=  9  Conv=0.46D-08     -V/T= 2.0062
 KE= 7.593634309541D+01 PE=-1.994733602286D+02 EE= 3.771620300197D+01
 Leave Link  502 at Wed Feb  8 14:50:50 2023, MaxMem=   754974720 cpu:               0.9 elap:               0.3
 (Enter /opt/cluster/programs/g16-c.01/g16/l601.exe)
 Copying SCF densities to generalized density rwf, IOpCl= 0 IROHF=0.

 **********************************************************************

            Population analysis using the SCF Density.

 **********************************************************************

 Orbital symmetries:
       Occupied  (A') (A') (A') (A') (A")
       Virtual   (A') (A') (A') (A') (A') (A") (A') (A') (A") (A')
                 (A") (A') (A') (A')
 The electronic state is 1-A'.
 Alpha  occ. eigenvalues --  -19.12849  -1.00784  -0.54215  -0.36086  -0.29165
 Alpha virt. eigenvalues --    0.07209   0.16185   0.81126   0.88183   0.89072
 Alpha virt. eigenvalues --    0.89214   1.08190   1.18007   1.73273   1.74252
 Alpha virt. eigenvalues --    1.78267   2.32819   2.64368   3.58269
          Condensed to atoms (all electrons):
               1          2          3
     1  O    8.279071   0.253729   0.258283
     2  H    0.253729   0.375305  -0.022490
     3  H    0.258283  -0.022490   0.366579
 Mulliken charges:
               1
     1  O   -0.791083
     2  H    0.393456
     3  H    0.397628
 Sum of Mulliken charges =   0.00000
 Mulliken charges with hydrogens summed into heavy atoms:
               1
     1  O    0.000000
 Electronic spatial extent (au):  <R**2>=             18.7015
 Charge=              0.0000 electrons
 Dipole moment (field-independent basis, Debye):
    X=             -0.0430    Y=             -1.9729    Z=              0.0000  Tot=              1.9733
 Quadrupole moment (field-independent basis, Debye-Ang):
   XX=             -4.0526   YY=             -6.1293   ZZ=             -7.1320
   XY=             -0.1394   XZ=              0.0000   YZ=              0.0000
 Traceless Quadrupole moment (field-independent basis, Debye-Ang):
   XX=              1.7187   YY=             -0.3580   ZZ=             -1.3607
   XY=             -0.1394   XZ=              0.0000   YZ=              0.0000
 Octapole moment (field-independent basis, Debye-Ang**2):
  XXX=             -0.0895  YYY=             -1.1543  ZZZ=              0.0000  XYY=              0.0710
  XXY=             -1.1533  XXZ=              0.0000  XZZ=             -0.0348  YZZ=             -0.3283
  YYZ=              0.0000  XYZ=              0.0000
 Hexadecapole moment (field-independent basis, Debye-Ang**3):
 XXXX=             -5.5596 YYYY=             -5.9545 ZZZZ=             -5.1327 XXXY=              0.0152
 XXXZ=              0.0000 YYYX=              0.0217 YYYZ=              0.0000 ZZZX=              0.0000
 ZZZY=              0.0000 XXYY=             -1.7048 XXZZ=             -2.0360 YYZZ=             -1.8816
 XXYZ=             -0.0000 YYXZ=              0.0000 ZZXY=              0.0355
 N-N= 9.416456068620D+00 E-N=-1.994733598730D+02  KE= 7.593634309541D+01
 Symmetry A'   KE= 7.134920623630D+01
 Symmetry A"   KE= 4.587136859106D+00
 No NMR shielding tensors so no spin-rotation constants.
 Leave Link  601 at Wed Feb  8 14:50:50 2023, MaxMem=   754974720 cpu:               0.5 elap:               0.1
 (Enter /opt/cluster/programs/g16-c.01/g16/l9999.exe)
 Unable to Open any file for archive entry.
 1\1\GINC-NODE70\SP\RB3LYP\6-31G(d)\H2O1\BOITTIER\08-Feb-2023\0\\#P B3L
 YP/6-31g* scf(maxcycle=200)\\Gaussian input\\0,1\O,0,0.,0.11751,0.\H,0
 ,0.7578497316,-0.4701504329,0.\H,0,-0.77289604,-0.3609382326,0.\\Versi
 on=ES64L-G16RevC.01\State=1-A'\HF=-76.4043581\RMSD=4.571e-09\Dipole=-0
 .0278784,-0.7758693,0.\Quadrupole=1.2745582,-0.2629205,-1.0116377,-0.1
 253801,0.,0.\PG=CS [SG(H2O1)]\\@
 The archive entry for this job was punched.



 WE LOSE BECAUSE WE WIN

 GAMBLERS,

 RECOLLECTING WHICH,

 TOSS THEIR DICE AGAIN....


                          EMILY DICKINSON  BOLTS OF MELODY NO. 533
 Job cpu time:       0 days  0 hours  0 minutes  3.5 seconds.
 Elapsed time:       0 days  0 hours  0 minutes  1.0 seconds.
 File lengths (MBytes):  RWF=      6 Int=      0 D2E=      0 Chk=      1 Scr=      1
 Normal termination of Gaussian 16 at Wed Feb  8 14:50:50 2023.
