 Entering Gaussian System, Link 0=/opt/cluster/programs/g16-c.01/g16/g16
 Input=/scratch/boittier/jobs/tmp.7261672/gaussian_9_water_ccsdt_atz.com
 Output=/scratch/boittier/jobs/tmp.7261672/gaussian_9_water_ccsdt_atz.out
 Initial command:
 /opt/cluster/programs/g16-c.01/g16/l1.exe "/scratch/boittier/jobs/tmp.7261672/Gau-135591.inp" -scrdir="/scratch/boittier/jobs/tmp.7261672/"
 Entering Link 1 = /opt/cluster/programs/g16-c.01/g16/l1.exe PID=    135592.
  
 Copyright (c) 1988-2019, Gaussian, Inc.  All Rights Reserved.
  
 This is part of the Gaussian(R) 16 program.  It is based on
 the Gaussian(R) 09 system (copyright 2009, Gaussian, Inc.),
 the Gaussian(R) 03 system (copyright 2003, Gaussian, Inc.),
 the Gaussian(R) 98 system (copyright 1998, Gaussian, Inc.),
 the Gaussian(R) 94 system (copyright 1995, Gaussian, Inc.),
 the Gaussian 92(TM) system (copyright 1992, Gaussian, Inc.),
 the Gaussian 90(TM) system (copyright 1990, Gaussian, Inc.),
 the Gaussian 88(TM) system (copyright 1988, Gaussian, Inc.),
 the Gaussian 86(TM) system (copyright 1986, Carnegie Mellon
 University), and the Gaussian 82(TM) system (copyright 1983,
 Carnegie Mellon University). Gaussian is a federally registered
 trademark of Gaussian, Inc.
  
 This software contains proprietary and confidential information,
 including trade secrets, belonging to Gaussian, Inc.
  
 This software is provided under written license and may be
 used, copied, transmitted, or stored only in accord with that
 written license.
  
 The following legend is applicable only to US Government
 contracts under FAR:
  
                    RESTRICTED RIGHTS LEGEND
  
 Use, reproduction and disclosure by the US Government is
 subject to restrictions as set forth in subparagraphs (a)
 and (c) of the Commercial Computer Software - Restricted
 Rights clause in FAR 52.227-19.
  
 Gaussian, Inc.
 340 Quinnipiac St., Bldg. 40, Wallingford CT 06492
  
  
 ---------------------------------------------------------------
 Warning -- This program may not be used in any manner that
 competes with the business of Gaussian, Inc. or will provide
 assistance to any competitor of Gaussian, Inc.  The licensee
 of this program is prohibited from giving any competitor of
 Gaussian, Inc. access to this program.  By using this program,
 the user acknowledges that Gaussian, Inc. is engaged in the
 business of creating and licensing software in the field of
 computational chemistry and represents and warrants to the
 licensee that it is not a competitor of Gaussian, Inc. and that
 it will not use this program in any manner prohibited above.
 ---------------------------------------------------------------
  

 Cite this work as:
 Gaussian 16, Revision C.01,
 M. J. Frisch, G. W. Trucks, H. B. Schlegel, G. E. Scuseria, 
 M. A. Robb, J. R. Cheeseman, G. Scalmani, V. Barone, 
 G. A. Petersson, H. Nakatsuji, X. Li, M. Caricato, A. V. Marenich, 
 J. Bloino, B. G. Janesko, R. Gomperts, B. Mennucci, H. P. Hratchian, 
 J. V. Ortiz, A. F. Izmaylov, J. L. Sonnenberg, D. Williams-Young, 
 F. Ding, F. Lipparini, F. Egidi, J. Goings, B. Peng, A. Petrone, 
 T. Henderson, D. Ranasinghe, V. G. Zakrzewski, J. Gao, N. Rega, 
 G. Zheng, W. Liang, M. Hada, M. Ehara, K. Toyota, R. Fukuda, 
 J. Hasegawa, M. Ishida, T. Nakajima, Y. Honda, O. Kitao, H. Nakai, 
 T. Vreven, K. Throssell, J. A. Montgomery, Jr., J. E. Peralta, 
 F. Ogliaro, M. J. Bearpark, J. J. Heyd, E. N. Brothers, K. N. Kudin, 
 V. N. Staroverov, T. A. Keith, R. Kobayashi, J. Normand, 
 K. Raghavachari, A. P. Rendell, J. C. Burant, S. S. Iyengar, 
 J. Tomasi, M. Cossi, J. M. Millam, M. Klene, C. Adamo, R. Cammi, 
 J. W. Ochterski, R. L. Martin, K. Morokuma, O. Farkas, 
 J. B. Foresman, and D. J. Fox, Gaussian, Inc., Wallingford CT, 2019.
 
 ******************************************
 Gaussian 16:  ES64L-G16RevC.01  3-Jul-2019
                 8-Feb-2023 
 ******************************************
 %nproc=4
 Will use up to    4 processors via shared memory.
 %mem=5760MB
 %chk=gaussian_9_water_ccsdt_atz.chk
 ----------------------------------------
 #P CCSD(T)/aug-cc-pVTZ scf(maxcycle=200)
 ----------------------------------------
 1/38=1,172=1/1;
 2/12=2,17=6,18=5,40=1/2;
 3/5=16,6=1,7=10,11=9,25=1,30=1/1,2,3;
 4//1;
 5/5=2,7=200,38=5/2;
 8/6=4,9=120000,10=1/1,4;
 9/5=7,14=2/13;
 6/7=2,8=2,9=2,10=2/1;
 99/5=1,9=1/99;
 Leave Link    1 at Wed Feb  8 13:46:43 2023, MaxMem=   754974720 cpu:               0.8 elap:               1.6
 (Enter /opt/cluster/programs/g16-c.01/g16/l101.exe)
 --------------
 Gaussian input
 --------------
 Symbolic Z-matrix:
 Charge =  0 Multiplicity = 1
 O                     0.        0.11751   0. 
 H                     0.71834  -0.43951   0. 
 H                    -0.69879  -0.46385   0. 
 
 ITRead=  0  0  0
 MicOpt= -1 -1 -1
 NAtoms=      3 NQM=        3 NQMF=       0 NMMI=      0 NMMIF=      0
                NMic=       0 NMicF=      0.
                    Isotopes and Nuclear Properties:
 (Nuclear quadrupole moments (NQMom) in fm**2, nuclear magnetic moments (NMagM)
  in nuclear magnetons)

  Atom         1           2           3
 IAtWgt=          16           1           1
 AtmWgt=  15.9949146   1.0078250   1.0078250
 NucSpn=           0           1           1
 AtZEff=  -0.0000000  -0.0000000  -0.0000000
 NQMom=    0.0000000   0.0000000   0.0000000
 NMagM=    0.0000000   2.7928460   2.7928460
 AtZNuc=   8.0000000   1.0000000   1.0000000
 Leave Link  101 at Wed Feb  8 13:46:49 2023, MaxMem=   754974720 cpu:               0.4 elap:               0.2
 (Enter /opt/cluster/programs/g16-c.01/g16/l202.exe)
                          Input orientation:                          
 ---------------------------------------------------------------------
 Center     Atomic      Atomic             Coordinates (Angstroms)
 Number     Number       Type             X           Y           Z
 ---------------------------------------------------------------------
      1          8           0        0.000000    0.117510    0.000000
      2          1           0        0.718337   -0.439511    0.000000
      3          1           0       -0.698787   -0.463848    0.000000
 ---------------------------------------------------------------------
                    Distance matrix (angstroms):
                    1          2          3
     1  O    0.000000
     2  H    0.909000   0.000000
     3  H    0.909000   1.417333   0.000000
 Stoichiometry    H2O
 Framework group  C2V[C2(O),SGV(H2)]
 Deg. of freedom     2
 Full point group                 C2V     NOp   4
 Largest Abelian subgroup         C2V     NOp   4
 Largest concise Abelian subgroup C2      NOp   2
                         Standard orientation:                         
 ---------------------------------------------------------------------
 Center     Atomic      Atomic             Coordinates (Angstroms)
 Number     Number       Type             X           Y           Z
 ---------------------------------------------------------------------
      1          8           0        0.000000    0.000000    0.113855
      2          1           0       -0.000000    0.708667   -0.455419
      3          1           0       -0.000000   -0.708667   -0.455419
 ---------------------------------------------------------------------
 Rotational constants (GHZ):         871.1746246         499.2499680         317.3716422
 Leave Link  202 at Wed Feb  8 13:46:54 2023, MaxMem=   754974720 cpu:               0.1 elap:               0.1
 (Enter /opt/cluster/programs/g16-c.01/g16/l301.exe)
 Standard basis: Aug-CC-pVTZ (5D, 7F)
 Ernie: Thresh=  0.10000D-02 Tol=  0.10000D-05 Strict=F.
 Ernie:  3 primitive shells out of 52 were deleted.
 There are    42 symmetry adapted cartesian basis functions of A1  symmetry.
 There are    12 symmetry adapted cartesian basis functions of A2  symmetry.
 There are    20 symmetry adapted cartesian basis functions of B1  symmetry.
 There are    31 symmetry adapted cartesian basis functions of B2  symmetry.
 There are    35 symmetry adapted basis functions of A1  symmetry.
 There are    12 symmetry adapted basis functions of A2  symmetry.
 There are    18 symmetry adapted basis functions of B1  symmetry.
 There are    27 symmetry adapted basis functions of B2  symmetry.
    92 basis functions,   126 primitive gaussians,   105 cartesian basis functions
     5 alpha electrons        5 beta electrons
       nuclear repulsion energy         9.6878115108 Hartrees.
 IExCor=    0 DFT=F Ex=HF Corr=None ExCW=0 ScaHFX=  1.000000
 ScaDFX=  1.000000  1.000000  1.000000  1.000000 ScalE2=  1.000000  1.000000
 IRadAn=      5 IRanWt=     -1 IRanGd=            0 ICorTp=0 IEmpDi=  4
 NAtoms=    3 NActive=    3 NUniq=    2 SFac= 2.25D+00 NAtFMM=   60 NAOKFM=F Big=F
 Integral buffers will be    131072 words long.
 Raffenetti 1 integral format.
 Two-electron integral symmetry is turned on.
 Leave Link  301 at Wed Feb  8 13:47:00 2023, MaxMem=   754974720 cpu:               0.1 elap:               0.1
 (Enter /opt/cluster/programs/g16-c.01/g16/l302.exe)
 NPDir=0 NMtPBC=     1 NCelOv=     1 NCel=       1 NClECP=     1 NCelD=      1
         NCelK=      1 NCelE2=     1 NClLst=     1 CellRange=     0.0.
 One-electron integrals computed using PRISM.
 One-electron integral symmetry used in STVInt
 NBasis=    92 RedAO= T EigKep=  3.45D-04  NBF=    35    12    18    27
 NBsUse=    92 1.00D-06 EigRej= -1.00D+00 NBFU=    35    12    18    27
 Leave Link  302 at Wed Feb  8 13:47:10 2023, MaxMem=   754974720 cpu:               6.1 elap:               3.0
 (Enter /opt/cluster/programs/g16-c.01/g16/l303.exe)
 DipDrv:  MaxL=1.
 Leave Link  303 at Wed Feb  8 13:47:16 2023, MaxMem=   754974720 cpu:               0.1 elap:               0.0
 (Enter /opt/cluster/programs/g16-c.01/g16/l401.exe)
 ExpMin= 2.53D-02 ExpMax= 1.53D+04 ExpMxC= 5.22D+02 IAcc=3 IRadAn=         5 AccDes= 0.00D+00
 Harris functional with IExCor=  205 and IRadAn=       5 diagonalized for initial guess.
 HarFok:  IExCor=  205 AccDes= 0.00D+00 IRadAn=         5 IDoV= 1 UseB2=F ITyADJ=14
 ICtDFT=  3500011 ScaDFX=  1.000000  1.000000  1.000000  1.000000
 FoFCou: FMM=F IPFlag=           0 FMFlag=      100000 FMFlg1=           0
         NFxFlg=           0 DoJE=T BraDBF=F KetDBF=T FulRan=T
         wScrn=  0.000000 ICntrl=       500 IOpCl=  0 I1Cent=   200000004 NGrid=           0
         NMat0=    1 NMatS0=      1 NMatT0=    0 NMatD0=    1 NMtDS0=    0 NMtDT0=    0
 Petite list used in FoFCou.
 Harris En= -76.1521878157154    
 JPrj=0 DoOrth=F DoCkMO=F.
 Initial guess orbital symmetries:
       Occupied  (A1) (A1) (B2) (A1) (B1)
       Virtual   (A1) (B2) (A1) (B1) (A1) (B2) (B2) (A1) (A2) (A1)
                 (B1) (B2) (A1) (B2) (B2) (A1) (A1) (B1) (A2) (A1)
                 (B1) (A1) (B1) (B2) (A2) (A1) (B2) (B2) (A1) (B1)
                 (B2) (A1) (A2) (B2) (A1) (A2) (B1) (A1) (B2) (B2)
                 (A1) (B1) (A1) (A2) (A1) (B2) (B1) (A1) (B1) (B2)
                 (A1) (B2) (A2) (B2) (A1) (B1) (A2) (A1) (B1) (B2)
                 (A1) (A2) (B1) (B2) (A1) (B2) (B2) (A2) (B2) (A1)
                 (B1) (A1) (A1) (B2) (B1) (B1) (A1) (A2) (A1) (B1)
                 (B2) (A2) (A1) (A1) (B2) (B2) (A1)
 The electronic state of the initial guess is 1-A1.
 Leave Link  401 at Wed Feb  8 13:47:23 2023, MaxMem=   754974720 cpu:               3.7 elap:               1.7
 (Enter /opt/cluster/programs/g16-c.01/g16/l502.exe)
 Keep R1 ints in memory in symmetry-blocked form, NReq=11496777.
 FoFCou: FMM=F IPFlag=           0 FMFlag=           0 FMFlg1=           0
         NFxFlg=           0 DoJE=F BraDBF=F KetDBF=F FulRan=T
         wScrn=  0.000000 ICntrl=       600 IOpCl=  0 I1Cent=           0 NGrid=           0
         NMat0=    1 NMatS0=   4278 NMatT0=    0 NMatD0=    1 NMtDS0=    0 NMtDT0=    0
 Petite list used in FoFCou.
 Closed shell SCF:
 Using DIIS extrapolation, IDIIS=  1040.
 NGot=   754974720 LenX=   752607631 LenY=   752596165
 Requested convergence on RMS density matrix=1.00D-08 within 200 cycles.
 Requested convergence on MAX density matrix=1.00D-06.
 Requested convergence on             energy=1.00D-06.
 No special actions if energy rises.

 Cycle   1  Pass 1  IDiag  1:
 E= -75.9622766883726    
 DIIS: error= 6.09D-02 at cycle   1 NSaved=   1.
 NSaved= 1 IEnMin= 1 EnMin= -75.9622766883726     IErMin= 1 ErrMin= 6.09D-02
 ErrMax= 6.09D-02  0.00D+00 EMaxC= 1.00D-01 BMatC= 2.18D-01 BMatP= 2.18D-01
 IDIUse=3 WtCom= 3.91D-01 WtEn= 6.09D-01
 Coeff-Com:  0.100D+01
 Coeff-En:   0.100D+01
 Coeff:      0.100D+01
 Gap=     0.448 Goal=   None    Shift=    0.000
 GapD=    0.448 DampG=2.000 DampE=0.500 DampFc=1.0000 IDamp=-1.
 RMSDP=2.24D-03 MaxDP=5.15D-02              OVMax= 1.26D-01

 Cycle   2  Pass 1  IDiag  1:
 E= -76.0214784461712     Delta-E=       -0.059201757799 Rises=F Damp=F
 DIIS: error= 3.68D-02 at cycle   2 NSaved=   2.
 NSaved= 2 IEnMin= 2 EnMin= -76.0214784461712     IErMin= 2 ErrMin= 3.68D-02
 ErrMax= 3.68D-02  0.00D+00 EMaxC= 1.00D-01 BMatC= 6.05D-02 BMatP= 2.18D-01
 IDIUse=3 WtCom= 6.32D-01 WtEn= 3.68D-01
 Coeff-Com:  0.318D+00 0.682D+00
 Coeff-En:   0.169D+00 0.831D+00
 Coeff:      0.264D+00 0.736D+00
 Gap=     0.573 Goal=   None    Shift=    0.000
 RMSDP=1.31D-03 MaxDP=3.41D-02 DE=-5.92D-02 OVMax= 6.47D-02

 Cycle   3  Pass 1  IDiag  1:
 E= -76.0563386321604     Delta-E=       -0.034860185989 Rises=F Damp=F
 DIIS: error= 7.93D-03 at cycle   3 NSaved=   3.
 NSaved= 3 IEnMin= 3 EnMin= -76.0563386321604     IErMin= 3 ErrMin= 7.93D-03
 ErrMax= 7.93D-03  0.00D+00 EMaxC= 1.00D-01 BMatC= 2.89D-03 BMatP= 6.05D-02
 IDIUse=3 WtCom= 9.21D-01 WtEn= 7.93D-02
 Coeff-Com: -0.295D-01 0.148D+00 0.882D+00
 Coeff-En:   0.000D+00 0.000D+00 0.100D+01
 Coeff:     -0.272D-01 0.136D+00 0.891D+00
 Gap=     0.543 Goal=   None    Shift=    0.000
 RMSDP=2.16D-04 MaxDP=4.29D-03 DE=-3.49D-02 OVMax= 1.18D-02

 Cycle   4  Pass 1  IDiag  1:
 E= -76.0580761137131     Delta-E=       -0.001737481553 Rises=F Damp=F
 DIIS: error= 4.73D-04 at cycle   4 NSaved=   4.
 NSaved= 4 IEnMin= 4 EnMin= -76.0580761137131     IErMin= 4 ErrMin= 4.73D-04
 ErrMax= 4.73D-04  0.00D+00 EMaxC= 1.00D-01 BMatC= 1.03D-05 BMatP= 2.89D-03
 IDIUse=3 WtCom= 9.95D-01 WtEn= 4.73D-03
 Coeff-Com:  0.633D-02-0.511D-01-0.232D+00 0.128D+01
 Coeff-En:   0.000D+00 0.000D+00 0.000D+00 0.100D+01
 Coeff:      0.630D-02-0.508D-01-0.231D+00 0.128D+01
 Gap=     0.545 Goal=   None    Shift=    0.000
 RMSDP=3.14D-05 MaxDP=6.37D-04 DE=-1.74D-03 OVMax= 1.99D-03

 Cycle   5  Pass 1  IDiag  1:
 E= -76.0580929602389     Delta-E=       -0.000016846526 Rises=F Damp=F
 DIIS: error= 1.36D-04 at cycle   5 NSaved=   5.
 NSaved= 5 IEnMin= 5 EnMin= -76.0580929602389     IErMin= 5 ErrMin= 1.36D-04
 ErrMax= 1.36D-04  0.00D+00 EMaxC= 1.00D-01 BMatC= 4.51D-07 BMatP= 1.03D-05
 IDIUse=3 WtCom= 9.99D-01 WtEn= 1.36D-03
 Coeff-Com: -0.108D-03 0.449D-02 0.184D-01-0.321D+00 0.130D+01
 Coeff-En:   0.000D+00 0.000D+00 0.000D+00 0.000D+00 0.100D+01
 Coeff:     -0.108D-03 0.448D-02 0.183D-01-0.320D+00 0.130D+01
 Gap=     0.545 Goal=   None    Shift=    0.000
 RMSDP=9.02D-06 MaxDP=1.77D-04 DE=-1.68D-05 OVMax= 5.82D-04

 Cycle   6  Pass 1  IDiag  1:
 E= -76.0580940071785     Delta-E=       -0.000001046940 Rises=F Damp=F
 DIIS: error= 1.56D-05 at cycle   6 NSaved=   6.
 NSaved= 6 IEnMin= 6 EnMin= -76.0580940071785     IErMin= 6 ErrMin= 1.56D-05
 ErrMax= 1.56D-05  0.00D+00 EMaxC= 1.00D-01 BMatC= 1.09D-08 BMatP= 4.51D-07
 IDIUse=1 WtCom= 1.00D+00 WtEn= 0.00D+00
 Coeff-Com: -0.126D-03-0.251D-04-0.488D-03 0.668D-01-0.422D+00 0.136D+01
 Coeff:     -0.126D-03-0.251D-04-0.488D-03 0.668D-01-0.422D+00 0.136D+01
 Gap=     0.545 Goal=   None    Shift=    0.000
 RMSDP=1.54D-06 MaxDP=3.62D-05 DE=-1.05D-06 OVMax= 1.03D-04

 Cycle   7  Pass 1  IDiag  1:
 E= -76.0580940363927     Delta-E=       -0.000000029214 Rises=F Damp=F
 DIIS: error= 2.57D-06 at cycle   7 NSaved=   7.
 NSaved= 7 IEnMin= 7 EnMin= -76.0580940363927     IErMin= 7 ErrMin= 2.57D-06
 ErrMax= 2.57D-06  0.00D+00 EMaxC= 1.00D-01 BMatC= 3.27D-10 BMatP= 1.09D-08
 IDIUse=1 WtCom= 1.00D+00 WtEn= 0.00D+00
 Coeff-Com:  0.336D-04-0.160D-03-0.545D-03-0.370D-02 0.559D-01-0.318D+00
 Coeff-Com:  0.127D+01
 Coeff:      0.336D-04-0.160D-03-0.545D-03-0.370D-02 0.559D-01-0.318D+00
 Coeff:      0.127D+01
 Gap=     0.545 Goal=   None    Shift=    0.000
 RMSDP=2.17D-07 MaxDP=4.83D-06 DE=-2.92D-08 OVMax= 1.53D-05

 Cycle   8  Pass 1  IDiag  1:
 E= -76.0580940371837     Delta-E=       -0.000000000791 Rises=F Damp=F
 DIIS: error= 6.03D-07 at cycle   8 NSaved=   8.
 NSaved= 8 IEnMin= 8 EnMin= -76.0580940371837     IErMin= 8 ErrMin= 6.03D-07
 ErrMax= 6.03D-07  0.00D+00 EMaxC= 1.00D-01 BMatC= 1.34D-11 BMatP= 3.27D-10
 IDIUse=1 WtCom= 1.00D+00 WtEn= 0.00D+00
 Coeff-Com:  0.410D-05 0.190D-04 0.938D-04-0.380D-02 0.193D-01-0.488D-01
 Coeff-Com: -0.119D+00 0.115D+01
 Coeff:      0.410D-05 0.190D-04 0.938D-04-0.380D-02 0.193D-01-0.488D-01
 Coeff:     -0.119D+00 0.115D+01
 Gap=     0.545 Goal=   None    Shift=    0.000
 RMSDP=5.42D-08 MaxDP=1.08D-06 DE=-7.91D-10 OVMax= 3.30D-06

 Cycle   9  Pass 1  IDiag  1:
 E= -76.0580940372167     Delta-E=       -0.000000000033 Rises=F Damp=F
 DIIS: error= 1.07D-07 at cycle   9 NSaved=   9.
 NSaved= 9 IEnMin= 9 EnMin= -76.0580940372167     IErMin= 9 ErrMin= 1.07D-07
 ErrMax= 1.07D-07  0.00D+00 EMaxC= 1.00D-01 BMatC= 3.12D-13 BMatP= 1.34D-11
 IDIUse=1 WtCom= 1.00D+00 WtEn= 0.00D+00
 Coeff-Com: -0.130D-05 0.639D-06-0.355D-05 0.647D-03-0.379D-02 0.137D-01
 Coeff-Com: -0.898D-02-0.205D+00 0.120D+01
 Coeff:     -0.130D-05 0.639D-06-0.355D-05 0.647D-03-0.379D-02 0.137D-01
 Coeff:     -0.898D-02-0.205D+00 0.120D+01
 Gap=     0.545 Goal=   None    Shift=    0.000
 RMSDP=1.14D-08 MaxDP=2.62D-07 DE=-3.31D-11 OVMax= 5.19D-07

 Cycle  10  Pass 1  IDiag  1:
 E= -76.0580940372174     Delta-E=       -0.000000000001 Rises=F Damp=F
 DIIS: error= 2.13D-08 at cycle  10 NSaved=  10.
 NSaved=10 IEnMin=10 EnMin= -76.0580940372174     IErMin=10 ErrMin= 2.13D-08
 ErrMax= 2.13D-08  0.00D+00 EMaxC= 1.00D-01 BMatC= 1.03D-14 BMatP= 3.12D-13
 IDIUse=1 WtCom= 1.00D+00 WtEn= 0.00D+00
 Coeff-Com:  0.362D-06-0.663D-06-0.672D-06-0.143D-03 0.888D-03-0.368D-02
 Coeff-Com:  0.691D-02 0.390D-01-0.406D+00 0.136D+01
 Coeff:      0.362D-06-0.663D-06-0.672D-06-0.143D-03 0.888D-03-0.368D-02
 Coeff:      0.691D-02 0.390D-01-0.406D+00 0.136D+01
 Gap=     0.545 Goal=   None    Shift=    0.000
 RMSDP=2.28D-09 MaxDP=3.89D-08 DE=-6.39D-13 OVMax= 8.94D-08

 SCF Done:  E(RHF) =  -76.0580940372     A.U. after   10 cycles
            NFock= 10  Conv=0.23D-08     -V/T= 1.9985
 KE= 7.617255422071D+01 PE=-2.000738984463D+02 EE= 3.815543867758D+01
 Leave Link  502 at Wed Feb  8 13:47:28 2023, MaxMem=   754974720 cpu:               1.9 elap:               0.5
 (Enter /opt/cluster/programs/g16-c.01/g16/l801.exe)
 Windowed orbitals will be sorted by symmetry type.
 ExpMin= 2.53D-02 ExpMax= 1.53D+04 ExpMxC= 5.22D+02 IAcc=3 IRadAn=         5 AccDes= 0.00D+00
 HarFok:  IExCor=  205 AccDes= 0.00D+00 IRadAn=         5 IDoV=-2 UseB2=F ITyADJ=14
 ICtDFT= 12500011 ScaDFX=  1.000000  1.000000  1.000000  1.000000
 Largest valence mixing into a core orbital is  1.08D-04
 Largest core mixing into a valence orbital is  1.55D-05
 Range of M.O.s used for correlation:     2    92
 NBasis=    92 NAE=     5 NBE=     5 NFC=     1 NFV=     0
 NROrb=     91 NOA=     4 NOB=     4 NVA=    87 NVB=    87

 **** Warning!!: The largest alpha MO coefficient is  0.17280442D+02

 Leave Link  801 at Wed Feb  8 13:47:30 2023, MaxMem=   754974720 cpu:               0.3 elap:               0.1
 (Enter /opt/cluster/programs/g16-c.01/g16/l804.exe)
 Closed-shell transformation, MDV=   754974720 ITran=4 ISComp=2.
 Unit  1 TFree=        277513 TCopy=        242092.
 Semi-Direct transformation.
 ModeAB=           4 MOrb=             4 LenV=     754589018
 LASXX=       368428 LTotXX=      368428 LenRXX=      751146
 LTotAB=      382718 MaxLAS=     1379560 LenRXY=           0
 NonZer=     1119574 LenScr=     2357760 LnRSAI=     1379560
 LnScr1=     2758656 LExtra=           0 Total=      7247122
 MaxDsk=          -1 SrtSym=           T ITran=            4
 DoSDTr:  NPSUse=  4
 JobTyp=0 Pass  1:  I=   1 to   4.
 (rs|ai) integrals will be sorted in core.
 Complete sort for first half transformation.
 First half transformation complete.
 Complete sort for second half transformation.
 Second half transformation complete.
 Spin components of T(2) and E(2):
     alpha-alpha T2 =       0.7736490903D-02 E2=     -0.3214982950D-01
     alpha-beta  T2 =       0.4466260029D-01 E2=     -0.2004208865D+00
     beta-beta   T2 =       0.7736490903D-02 E2=     -0.3214982950D-01
 ANorm=    0.1029628856D+01
 E2 =    -0.2647205454D+00 EUMP2 =    -0.76322814582667D+02
 Leave Link  804 at Wed Feb  8 13:47:32 2023, MaxMem=   754974720 cpu:               1.4 elap:               0.4
 (Enter /opt/cluster/programs/g16-c.01/g16/l913.exe)
 CIDS:  MDV=   754974720.
 Frozen-core window:  NFC=   1 NFV=   0.
 IFCWin=0 IBDFC=1 NFBD=     0     0 NFCmp=     0     0 NFFFC=     0     0
 Using DD3R+UMP44R for 1st iteration.
 Using DD4RQ for 2nd and later iterations.
 Keep R2 and R3 ints in memory in symmetry-blocked form, NReq=11500115.
 FoFCou: FMM=F IPFlag=           0 FMFlag=           0 FMFlg1=           0
         NFxFlg=           0 DoJE=F BraDBF=F KetDBF=F FulRan=T
         wScrn=  0.000000 ICntrl=       600 IOpCl=  0 I1Cent=           0 NGrid=           0
         NMat0=    1 NMatS0=   4278 NMatT0=    0 NMatD0=    1 NMtDS0=    0 NMtDT0=    0
 Petite list used in FoFCou.
 CIDS: In Core Option IDoMem=           1.
 CCSD(T)
 =======
 Iterations=  50 Convergence= 0.100D-06
 Produce multiple copies of IABC intergrals
 Iteration Nr.   1
 **********************
 DD1Dir will call FoFMem   1 times, MxPair=        20
 NAB=    10 NAA=     0 NBB=     0.
 MP4(R+Q)=  0.38778624D-02
 Maximum subspace dimension=  5
 A-vector RMS=  2.6438779D-03 Max=  1.0898186D-02 conv= 1.00D-05.
 RLE energy=       -0.2643582072
 E3=       -0.35526734D-02        EUMP3=      -0.76326367256D+02
 E4(DQ)=   -0.34597832D-03        UMP4(DQ)=   -0.76326713234D+02
 E4(SDQ)=  -0.20096880D-02        UMP4(SDQ)=  -0.76328376944D+02
 VARIATIONAL ENERGIES WITH THE FIRST-ORDER WAVEFUNCTION:
 DE(Corr)= -0.26435772     E(Corr)=     -76.322451753    
 NORM(A)=   0.10296091D+01
 Iteration Nr.   2
 **********************
 DD1Dir will call FoFMem   1 times, MxPair=        20
 NAB=    10 NAA=     0 NBB=     0.
 A-vector RMS=  2.6876604D-04 Max=  1.9542160D-03 conv= 1.00D-05.
 RLE energy=       -0.2695639037
 DE(Corr)= -0.26921258     E(CORR)=     -76.327306614     Delta=-4.85D-03
 NORM(A)=   0.10314240D+01
 Iteration Nr.   3
 **********************
 DD1Dir will call FoFMem   1 times, MxPair=        20
 NAB=    10 NAA=     0 NBB=     0.
 A-vector RMS=  3.5419042D-04 Max=  1.9544315D-03 conv= 1.00D-05.
 RLE energy=       -0.2698205699
 DE(Corr)= -0.26950965     E(CORR)=     -76.327603689     Delta=-2.97D-04
 NORM(A)=   0.10317523D+01
 Iteration Nr.   4
 **********************
 DD1Dir will call FoFMem   1 times, MxPair=        20
 NAB=    10 NAA=     0 NBB=     0.
 A-vector RMS=  5.0952981D-05 Max=  3.2470795D-04 conv= 1.00D-05.
 RLE energy=       -0.2698468673
 DE(Corr)= -0.26982460     E(CORR)=     -76.327918635     Delta=-3.15D-04
 NORM(A)=   0.10318424D+01
 Iteration Nr.   5
 **********************
 DD1Dir will call FoFMem   1 times, MxPair=        20
 NAB=    10 NAA=     0 NBB=     0.
 A-vector RMS=  2.5918488D-05 Max=  1.6952631D-04 conv= 1.00D-05.
 RLE energy=       -0.2698560354
 DE(Corr)= -0.26985199     E(CORR)=     -76.327946028     Delta=-2.74D-05
 NORM(A)=   0.10318602D+01
 Iteration Nr.   6
 **********************
 DD1Dir will call FoFMem   1 times, MxPair=        20
 NAB=    10 NAA=     0 NBB=     0.
 A-vector RMS=  6.0010774D-06 Max=  3.7223682D-05 conv= 1.00D-05.
 RLE energy=       -0.2698532002
 DE(Corr)= -0.26985391     E(CORR)=     -76.327947944     Delta=-1.92D-06
 NORM(A)=   0.10318618D+01
 Iteration Nr.   7
 **********************
 DD1Dir will call FoFMem   1 times, MxPair=        20
 NAB=    10 NAA=     0 NBB=     0.
 A-vector RMS=  1.8900481D-06 Max=  1.0533755D-05 conv= 1.00D-05.
 RLE energy=       -0.2698531508
 DE(Corr)= -0.26985386     E(CORR)=     -76.327947900     Delta= 4.40D-08
 NORM(A)=   0.10318623D+01
 Iteration Nr.   8
 **********************
 DD1Dir will call FoFMem   1 times, MxPair=        20
 NAB=    10 NAA=     0 NBB=     0.
 A-vector RMS=  7.2096076D-07 Max=  4.8417447D-06 conv= 1.00D-05.
 RLE energy=       -0.2698536101
 DE(Corr)= -0.26985368     E(CORR)=     -76.327947719     Delta= 1.81D-07
 NORM(A)=   0.10318626D+01
 Iteration Nr.   9
 **********************
 DD1Dir will call FoFMem   1 times, MxPair=        20
 NAB=    10 NAA=     0 NBB=     0.
 A-vector RMS=  1.4368842D-07 Max=  8.1178317D-07 conv= 1.00D-05.
 RLE energy=       -0.2698536807
 DE(Corr)= -0.26985369     E(CORR)=     -76.327947728     Delta=-8.89D-09
 NORM(A)=   0.10318627D+01
 CI/CC converged in    9 iterations to DelEn=-8.89D-09 Conv= 1.00D-07 ErrA1= 1.44D-07 Conv= 1.00D-05
 Wavefunction amplitudes converged. E(Corr)=     -76.327947728    
 Largest amplitude= 1.82D-02
 IPart=  2 IA=    6   11.23% done.
 IPart=  4 IA=   11   21.79% done.
 IPart=  1 IA=   16   31.68% done.
 IPart=  3 IA=   21   40.90% done.
 IPart=  4 IA=   27   51.08% done.
 IPart=  2 IA=   33   60.30% done.
 IPart=  3 IA=   41   71.10% done.
 IPart=  2 IA=   49   80.19% done.
 IPart=  4 IA=   61   90.62% done.
 Time for triples=        6.14 seconds.
 T4(CCSD)= -0.84469788D-02
 T5(CCSD)=  0.28193930D-03
 CCSD(T)= -0.76336112767D+02
 Discarding MO integrals.
 Leave Link  913 at Wed Feb  8 13:47:36 2023, MaxMem=   754974720 cpu:              10.1 elap:               2.5
 (Enter /opt/cluster/programs/g16-c.01/g16/l601.exe)
 Copying SCF densities to generalized density rwf, IOpCl= 0 IROHF=0.

 **********************************************************************

            Population analysis using the SCF Density.

 **********************************************************************

 Orbital symmetries:
       Occupied  (A1) (A1) (B2) (A1) (B1)
       Virtual   (A1) (B2) (A1) (B1) (A1) (B2) (B2) (A1) (A2) (B1)
                 (A1) (B2) (A1) (B2) (B2) (A1) (A1) (A2) (B1) (A1)
                 (B1) (A1) (B1) (B2) (A2) (B2) (A1) (A1) (B2) (B1)
                 (B2) (A2) (A1) (B2) (A1) (A2) (B1) (A1) (B2) (B2)
                 (A1) (B1) (A1) (A2) (A1) (B1) (B2) (A1) (B2) (B1)
                 (B2) (A1) (A2) (B2) (A1) (A2) (B1) (A1) (B1) (B2)
                 (A1) (A2) (B1) (B2) (A1) (B2) (B2) (A2) (B2) (A1)
                 (B1) (A1) (A1) (B2) (B1) (A1) (B1) (A2) (B1) (A1)
                 (B2) (A2) (A1) (A1) (B2) (B2) (A1)
 The electronic state is 1-A1.
 Alpha  occ. eigenvalues --  -20.55907  -1.38185  -0.74077  -0.59831  -0.51522
 Alpha virt. eigenvalues --    0.02986   0.04798   0.13567   0.15640   0.17687
 Alpha virt. eigenvalues --    0.18311   0.23127   0.24785   0.26648   0.30116
 Alpha virt. eigenvalues --    0.31091   0.36843   0.44800   0.47484   0.60220
 Alpha virt. eigenvalues --    0.66586   0.70944   0.72403   0.72998   0.84742
 Alpha virt. eigenvalues --    0.85346   0.88576   0.91098   0.92323   0.92910
 Alpha virt. eigenvalues --    0.93915   0.96279   1.04691   1.06423   1.08695
 Alpha virt. eigenvalues --    1.11815   1.19012   1.20059   1.24343   1.51606
 Alpha virt. eigenvalues --    1.52712   1.61133   1.78434   1.87838   2.04694
 Alpha virt. eigenvalues --    2.16349   2.27113   2.31976   2.32936   2.42927
 Alpha virt. eigenvalues --    2.43418   2.43984   2.50638   2.64235   2.67999
 Alpha virt. eigenvalues --    2.81490   2.82786   2.91251   3.73501   3.79147
 Alpha virt. eigenvalues --    4.07521   4.13847   4.16237   4.29250   4.34910
 Alpha virt. eigenvalues --    4.38513   4.40582   4.46239   4.56555   4.79200
 Alpha virt. eigenvalues --    5.00471   5.21149   5.28719   5.39544   5.53589
 Alpha virt. eigenvalues --    5.68438   5.73313   6.27633   6.51084   6.73021
 Alpha virt. eigenvalues --    7.07171   7.14944   7.31916   7.34605   7.35078
 Alpha virt. eigenvalues --    7.41362   7.49512   7.70032   7.98081   8.16289
 Alpha virt. eigenvalues --    9.07199  17.44394
          Condensed to atoms (all electrons):
               1          2          3
     1  O    7.776413   0.288154   0.288154
     2  H    0.288154   0.541490  -0.006005
     3  H    0.288154  -0.006005   0.541490
 Mulliken charges:
               1
     1  O   -0.352722
     2  H    0.176361
     3  H    0.176361
 Sum of Mulliken charges =  -0.00000
 Mulliken charges with hydrogens summed into heavy atoms:
               1
     1  O   -0.000000
 Electronic spatial extent (au):  <R**2>=             18.8405
 Charge=             -0.0000 electrons
 Dipole moment (field-independent basis, Debye):
    X=             -0.0000    Y=             -0.0000    Z=             -1.9740  Tot=              1.9740
 Quadrupole moment (field-independent basis, Debye-Ang):
   XX=             -7.4411   YY=             -4.4333   ZZ=             -6.1518
   XY=              0.0000   XZ=              0.0000   YZ=              0.0000
 Traceless Quadrupole moment (field-independent basis, Debye-Ang):
   XX=             -1.4324   YY=              1.5754   ZZ=             -0.1430
   XY=              0.0000   XZ=              0.0000   YZ=              0.0000
 Octapole moment (field-independent basis, Debye-Ang**2):
  XXX=              0.0000  YYY=              0.0000  ZZZ=             -1.2186  XYY=             -0.0000
  XXY=             -0.0000  XXZ=             -0.2862  XZZ=              0.0000  YZZ=              0.0000
  YYZ=             -1.2551  XYZ=             -0.0000
 Hexadecapole moment (field-independent basis, Debye-Ang**3):
 XXXX=             -6.5564 YYYY=             -5.6993 ZZZZ=             -6.8652 XXXY=             -0.0000
 XXXZ=             -0.0000 YYYX=             -0.0000 YYYZ=              0.0000 ZZZX=             -0.0000
 ZZZY=              0.0000 XXYY=             -2.2990 XXZZ=             -2.2823 YYZZ=             -1.7889
 XXYZ=              0.0000 YYXZ=              0.0000 ZZXY=             -0.0000
 N-N= 9.687811510825D+00 E-N=-2.000738984620D+02  KE= 7.617255422071D+01
 Symmetry A1   KE= 6.798931592867D+01
 Symmetry A2   KE=-1.061702940513D-19
 Symmetry B1   KE= 4.463822229279D+00
 Symmetry B2   KE= 3.719416062750D+00
 Leave Link  601 at Wed Feb  8 13:47:39 2023, MaxMem=   754974720 cpu:               0.2 elap:               0.1
 (Enter /opt/cluster/programs/g16-c.01/g16/l9999.exe)
 Unable to Open any file for archive entry.
 1\1\GINC-NODE66\SP\RCCSD(T)-FC\Aug-CC-pVTZ\H2O1\BOITTIER\08-Feb-2023\0
 \\#P CCSD(T)/aug-cc-pVTZ scf(maxcycle=200)\\Gaussian input\\0,1\O,0,0.
 ,0.11751,0.\H,0,0.7183372325,-0.4395112028,0.\H,0,-0.6987871447,-0.463
 8483459,0.\\Version=ES64L-G16RevC.01\State=1-A1\HF=-76.058094\MP2=-76.
 3228146\MP3=-76.3263673\MP4D=-76.3305911\MP4DQ=-76.3267132\MP4SDQ=-76.
 3283769\CCSD=-76.3279477\CCSD(T)=-76.3361128\RMSD=2.284e-09\PG=C02V [C
 2(O1),SGV(H2)]\\@
 The archive entry for this job was punched.


     "IF I COULD JUST GET IT ON PAPER"
 LIFE AND INK, THEY RUN OUT AT THE SAME TIME,
 OR SO SAID MY OLD FRIEND THE SQUID.
     -- JIMMY BUFFETT, 1981
 Job cpu time:       0 days  0 hours  0 minutes 26.2 seconds.
 Elapsed time:       0 days  0 hours  0 minutes 10.5 seconds.
 File lengths (MBytes):  RWF=     64 Int=      0 D2E=      0 Chk=      2 Scr=      1
 Normal termination of Gaussian 16 at Wed Feb  8 13:47:42 2023.
