 Entering Gaussian System, Link 0=/opt/cluster/programs/g16-c.01/g16/g16
 Input=/scratch/boittier/jobs/tmp.7262631/gaussian_105_water_hf_pdz.com
 Output=/scratch/boittier/jobs/tmp.7262631/gaussian_105_water_hf_pdz.out
 Initial command:
 /opt/cluster/programs/g16-c.01/g16/l1.exe "/scratch/boittier/jobs/tmp.7262631/Gau-142100.inp" -scrdir="/scratch/boittier/jobs/tmp.7262631/"
 Entering Link 1 = /opt/cluster/programs/g16-c.01/g16/l1.exe PID=    142101.
  
 Copyright (c) 1988-2019, Gaussian, Inc.  All Rights Reserved.
  
 This is part of the Gaussian(R) 16 program.  It is based on
 the Gaussian(R) 09 system (copyright 2009, Gaussian, Inc.),
 the Gaussian(R) 03 system (copyright 2003, Gaussian, Inc.),
 the Gaussian(R) 98 system (copyright 1998, Gaussian, Inc.),
 the Gaussian(R) 94 system (copyright 1995, Gaussian, Inc.),
 the Gaussian 92(TM) system (copyright 1992, Gaussian, Inc.),
 the Gaussian 90(TM) system (copyright 1990, Gaussian, Inc.),
 the Gaussian 88(TM) system (copyright 1988, Gaussian, Inc.),
 the Gaussian 86(TM) system (copyright 1986, Carnegie Mellon
 University), and the Gaussian 82(TM) system (copyright 1983,
 Carnegie Mellon University). Gaussian is a federally registered
 trademark of Gaussian, Inc.
  
 This software contains proprietary and confidential information,
 including trade secrets, belonging to Gaussian, Inc.
  
 This software is provided under written license and may be
 used, copied, transmitted, or stored only in accord with that
 written license.
  
 The following legend is applicable only to US Government
 contracts under FAR:
  
                    RESTRICTED RIGHTS LEGEND
  
 Use, reproduction and disclosure by the US Government is
 subject to restrictions as set forth in subparagraphs (a)
 and (c) of the Commercial Computer Software - Restricted
 Rights clause in FAR 52.227-19.
  
 Gaussian, Inc.
 340 Quinnipiac St., Bldg. 40, Wallingford CT 06492
  
  
 ---------------------------------------------------------------
 Warning -- This program may not be used in any manner that
 competes with the business of Gaussian, Inc. or will provide
 assistance to any competitor of Gaussian, Inc.  The licensee
 of this program is prohibited from giving any competitor of
 Gaussian, Inc. access to this program.  By using this program,
 the user acknowledges that Gaussian, Inc. is engaged in the
 business of creating and licensing software in the field of
 computational chemistry and represents and warrants to the
 licensee that it is not a competitor of Gaussian, Inc. and that
 it will not use this program in any manner prohibited above.
 ---------------------------------------------------------------
  

 Cite this work as:
 Gaussian 16, Revision C.01,
 M. J. Frisch, G. W. Trucks, H. B. Schlegel, G. E. Scuseria, 
 M. A. Robb, J. R. Cheeseman, G. Scalmani, V. Barone, 
 G. A. Petersson, H. Nakatsuji, X. Li, M. Caricato, A. V. Marenich, 
 J. Bloino, B. G. Janesko, R. Gomperts, B. Mennucci, H. P. Hratchian, 
 J. V. Ortiz, A. F. Izmaylov, J. L. Sonnenberg, D. Williams-Young, 
 F. Ding, F. Lipparini, F. Egidi, J. Goings, B. Peng, A. Petrone, 
 T. Henderson, D. Ranasinghe, V. G. Zakrzewski, J. Gao, N. Rega, 
 G. Zheng, W. Liang, M. Hada, M. Ehara, K. Toyota, R. Fukuda, 
 J. Hasegawa, M. Ishida, T. Nakajima, Y. Honda, O. Kitao, H. Nakai, 
 T. Vreven, K. Throssell, J. A. Montgomery, Jr., J. E. Peralta, 
 F. Ogliaro, M. J. Bearpark, J. J. Heyd, E. N. Brothers, K. N. Kudin, 
 V. N. Staroverov, T. A. Keith, R. Kobayashi, J. Normand, 
 K. Raghavachari, A. P. Rendell, J. C. Burant, S. S. Iyengar, 
 J. Tomasi, M. Cossi, J. M. Millam, M. Klene, C. Adamo, R. Cammi, 
 J. W. Ochterski, R. L. Martin, K. Morokuma, O. Farkas, 
 J. B. Foresman, and D. J. Fox, Gaussian, Inc., Wallingford CT, 2019.
 
 ******************************************
 Gaussian 16:  ES64L-G16RevC.01  3-Jul-2019
                 8-Feb-2023 
 ******************************************
 %nproc=4
 Will use up to    4 processors via shared memory.
 %mem=5760MB
 %chk=gaussian_105_water_hf_pdz.chk
 ------------------------------
 #P HF/6-31g* scf(maxcycle=200)
 ------------------------------
 1/38=1,172=1/1;
 2/12=2,17=6,18=5,40=1/2;
 3/5=1,6=6,7=1,11=9,25=1,30=1/1,2,3;
 4//1;
 5/5=2,7=200,38=5/2;
 6/7=2,8=2,9=2,10=2,28=1/1;
 99/5=1,9=1/99;
 Leave Link    1 at Wed Feb  8 15:06:19 2023, MaxMem=   754974720 cpu:               0.1 elap:               0.0
 (Enter /opt/cluster/programs/g16-c.01/g16/l101.exe)
 --------------
 Gaussian input
 --------------
 Symbolic Z-matrix:
 Charge =  0 Multiplicity = 1
 O                     0.        0.11751   0. 
 H                     0.75785  -0.47015   0. 
 H                    -0.6783   -0.62948   0. 
 
 ITRead=  0  0  0
 MicOpt= -1 -1 -1
 NAtoms=      3 NQM=        3 NQMF=       0 NMMI=      0 NMMIF=      0
                NMic=       0 NMicF=      0.
                    Isotopes and Nuclear Properties:
 (Nuclear quadrupole moments (NQMom) in fm**2, nuclear magnetic moments (NMagM)
  in nuclear magnetons)

  Atom         1           2           3
 IAtWgt=          16           1           1
 AtmWgt=  15.9949146   1.0078250   1.0078250
 NucSpn=           0           1           1
 AtZEff=  -0.0000000  -0.0000000  -0.0000000
 NQMom=    0.0000000   0.0000000   0.0000000
 NMagM=    0.0000000   2.7928460   2.7928460
 AtZNuc=   8.0000000   1.0000000   1.0000000
 Leave Link  101 at Wed Feb  8 15:06:20 2023, MaxMem=   754974720 cpu:               0.6 elap:               0.2
 (Enter /opt/cluster/programs/g16-c.01/g16/l202.exe)
                          Input orientation:                          
 ---------------------------------------------------------------------
 Center     Atomic      Atomic             Coordinates (Angstroms)
 Number     Number       Type             X           Y           Z
 ---------------------------------------------------------------------
      1          8           0        0.000000    0.117510    0.000000
      2          1           0        0.757850   -0.470150    0.000000
      3          1           0       -0.678302   -0.629475    0.000000
 ---------------------------------------------------------------------
                    Distance matrix (angstroms):
                    1          2          3
     1  O    0.000000
     2  H    0.959000   0.000000
     3  H    1.009000   1.444963   0.000000
 Stoichiometry    H2O
 Framework group  CS[SG(H2O)]
 Deg. of freedom     3
 Full point group                 CS      NOp   2
 Largest Abelian subgroup         CS      NOp   2
 Largest concise Abelian subgroup C1      NOp   1
                         Standard orientation:                         
 ---------------------------------------------------------------------
 Center     Atomic      Atomic             Coordinates (Angstroms)
 Number     Number       Type             X           Y           Z
 ---------------------------------------------------------------------
      1          8           0        0.000000    0.133701    0.000000
      2          1           0        0.721544   -0.498007    0.000000
      3          1           0       -0.721544   -0.571604    0.000000
 ---------------------------------------------------------------------
 Rotational constants (GHZ):         638.4243582         476.5438886         272.8662696
 Leave Link  202 at Wed Feb  8 15:06:20 2023, MaxMem=   754974720 cpu:               0.0 elap:               0.0
 (Enter /opt/cluster/programs/g16-c.01/g16/l301.exe)
 Standard basis: 6-31G(d) (6D, 7F)
 Ernie: Thresh=  0.10000D-02 Tol=  0.10000D-05 Strict=F.
 There are    15 symmetry adapted cartesian basis functions of A'  symmetry.
 There are     4 symmetry adapted cartesian basis functions of A"  symmetry.
 There are    15 symmetry adapted basis functions of A'  symmetry.
 There are     4 symmetry adapted basis functions of A"  symmetry.
    19 basis functions,    36 primitive gaussians,    19 cartesian basis functions
     5 alpha electrons        5 beta electrons
       nuclear repulsion energy         8.9762872641 Hartrees.
 IExCor=    0 DFT=F Ex=HF Corr=None ExCW=0 ScaHFX=  1.000000
 ScaDFX=  1.000000  1.000000  1.000000  1.000000 ScalE2=  1.000000  1.000000
 IRadAn=      5 IRanWt=     -1 IRanGd=            0 ICorTp=0 IEmpDi=  4
 NAtoms=    3 NActive=    3 NUniq=    3 SFac= 1.00D+00 NAtFMM=   60 NAOKFM=F Big=F
 Integral buffers will be    131072 words long.
 Raffenetti 1 integral format.
 Two-electron integral symmetry is turned on.
 Leave Link  301 at Wed Feb  8 15:06:20 2023, MaxMem=   754974720 cpu:               0.1 elap:               0.0
 (Enter /opt/cluster/programs/g16-c.01/g16/l302.exe)
 NPDir=0 NMtPBC=     1 NCelOv=     1 NCel=       1 NClECP=     1 NCelD=      1
         NCelK=      1 NCelE2=     1 NClLst=     1 CellRange=     0.0.
 One-electron integrals computed using PRISM.
 One-electron integral symmetry used in STVInt
 NBasis=    19 RedAO= T EigKep=  2.32D-02  NBF=    15     4
 NBsUse=    19 1.00D-06 EigRej= -1.00D+00 NBFU=    15     4
 Leave Link  302 at Wed Feb  8 15:06:20 2023, MaxMem=   754974720 cpu:               0.4 elap:               0.1
 (Enter /opt/cluster/programs/g16-c.01/g16/l303.exe)
 DipDrv:  MaxL=1.
 Leave Link  303 at Wed Feb  8 15:06:20 2023, MaxMem=   754974720 cpu:               0.2 elap:               0.1
 (Enter /opt/cluster/programs/g16-c.01/g16/l401.exe)
 ExpMin= 1.61D-01 ExpMax= 5.48D+03 ExpMxC= 8.25D+02 IAcc=3 IRadAn=         5 AccDes= 0.00D+00
 Harris functional with IExCor=  205 and IRadAn=       5 diagonalized for initial guess.
 HarFok:  IExCor=  205 AccDes= 0.00D+00 IRadAn=         5 IDoV= 1 UseB2=F ITyADJ=14
 ICtDFT=  3500011 ScaDFX=  1.000000  1.000000  1.000000  1.000000
 FoFCou: FMM=F IPFlag=           0 FMFlag=      100000 FMFlg1=           0
         NFxFlg=           0 DoJE=T BraDBF=F KetDBF=T FulRan=T
         wScrn=  0.000000 ICntrl=       500 IOpCl=  0 I1Cent=   200000004 NGrid=           0
         NMat0=    1 NMatS0=      1 NMatT0=    0 NMatD0=    1 NMtDS0=    0 NMtDT0=    0
 Petite list used in FoFCou.
 Harris En= -76.0962194016211    
 JPrj=0 DoOrth=F DoCkMO=F.
 Initial guess orbital symmetries:
       Occupied  (A') (A') (A') (A') (A")
       Virtual   (A') (A') (A') (A') (A") (A') (A') (A') (A') (A")
                 (A") (A') (A') (A')
 The electronic state of the initial guess is 1-A'.
 Leave Link  401 at Wed Feb  8 15:06:20 2023, MaxMem=   754974720 cpu:               0.5 elap:               0.1
 (Enter /opt/cluster/programs/g16-c.01/g16/l502.exe)
 Keep R1 ints in memory in symmetry-blocked form, NReq=845369.
 FoFCou: FMM=F IPFlag=           0 FMFlag=           0 FMFlg1=           0
         NFxFlg=           0 DoJE=F BraDBF=F KetDBF=F FulRan=T
         wScrn=  0.000000 ICntrl=       600 IOpCl=  0 I1Cent=           0 NGrid=           0
         NMat0=    1 NMatS0=    190 NMatT0=    0 NMatD0=    1 NMtDS0=    0 NMtDT0=    0
 Petite list used in FoFCou.
 Closed shell SCF:
 Using DIIS extrapolation, IDIIS=  1040.
 NGot=   754974720 LenX=   754962225 LenY=   754961343
 Requested convergence on RMS density matrix=1.00D-08 within 200 cycles.
 Requested convergence on MAX density matrix=1.00D-06.
 Requested convergence on             energy=1.00D-06.
 No special actions if energy rises.

 Cycle   1  Pass 1  IDiag  1:
 E= -75.9221038619369    
 DIIS: error= 7.44D-02 at cycle   1 NSaved=   1.
 NSaved= 1 IEnMin= 1 EnMin= -75.9221038619369     IErMin= 1 ErrMin= 7.44D-02
 ErrMax= 7.44D-02  0.00D+00 EMaxC= 1.00D-01 BMatC= 1.30D-01 BMatP= 1.30D-01
 IDIUse=3 WtCom= 2.56D-01 WtEn= 7.44D-01
 Coeff-Com:  0.100D+01
 Coeff-En:   0.100D+01
 Coeff:      0.100D+01
 Gap=     0.580 Goal=   None    Shift=    0.000
 GapD=    0.580 DampG=2.000 DampE=0.500 DampFc=1.0000 IDamp=-1.
 RMSDP=1.56D-02 MaxDP=1.19D-01              OVMax= 1.32D-01

 Cycle   2  Pass 1  IDiag  1:
 E= -75.9761121394856     Delta-E=       -0.054008277549 Rises=F Damp=F
 DIIS: error= 5.26D-02 at cycle   2 NSaved=   2.
 NSaved= 2 IEnMin= 2 EnMin= -75.9761121394856     IErMin= 2 ErrMin= 5.26D-02
 ErrMax= 5.26D-02  0.00D+00 EMaxC= 1.00D-01 BMatC= 4.22D-02 BMatP= 1.30D-01
 IDIUse=3 WtCom= 4.74D-01 WtEn= 5.26D-01
 Coeff-Com:  0.345D+00 0.655D+00
 Coeff-En:   0.120D+00 0.880D+00
 Coeff:      0.226D+00 0.774D+00
 Gap=     0.724 Goal=   None    Shift=    0.000
 RMSDP=7.96D-03 MaxDP=5.94D-02 DE=-5.40D-02 OVMax= 5.18D-02

 Cycle   3  Pass 1  IDiag  1:
 E= -76.0022744303449     Delta-E=       -0.026162290859 Rises=F Damp=F
 DIIS: error= 1.08D-02 at cycle   3 NSaved=   3.
 NSaved= 3 IEnMin= 3 EnMin= -76.0022744303449     IErMin= 3 ErrMin= 1.08D-02
 ErrMax= 1.08D-02  0.00D+00 EMaxC= 1.00D-01 BMatC= 2.40D-03 BMatP= 4.22D-02
 IDIUse=3 WtCom= 8.92D-01 WtEn= 1.08D-01
 Coeff-Com: -0.273D-01 0.165D+00 0.863D+00
 Coeff-En:   0.000D+00 0.000D+00 0.100D+01
 Coeff:     -0.243D-01 0.147D+00 0.877D+00
 Gap=     0.698 Goal=   None    Shift=    0.000
 RMSDP=1.53D-03 MaxDP=1.25D-02 DE=-2.62D-02 OVMax= 1.40D-02

 Cycle   4  Pass 1  IDiag  1:
 E= -76.0040406385885     Delta-E=       -0.001766208244 Rises=F Damp=F
 DIIS: error= 1.65D-03 at cycle   4 NSaved=   4.
 NSaved= 4 IEnMin= 4 EnMin= -76.0040406385885     IErMin= 4 ErrMin= 1.65D-03
 ErrMax= 1.65D-03  0.00D+00 EMaxC= 1.00D-01 BMatC= 2.43D-05 BMatP= 2.40D-03
 IDIUse=3 WtCom= 9.84D-01 WtEn= 1.65D-02
 Coeff-Com:  0.615D-02-0.758D-01-0.244D+00 0.131D+01
 Coeff-En:   0.000D+00 0.000D+00 0.000D+00 0.100D+01
 Coeff:      0.605D-02-0.746D-01-0.240D+00 0.131D+01
 Gap=     0.702 Goal=   None    Shift=    0.000
 RMSDP=2.35D-04 MaxDP=2.29D-03 DE=-1.77D-03 OVMax= 1.85D-03

 Cycle   5  Pass 1  IDiag  1:
 E= -76.0040638430368     Delta-E=       -0.000023204448 Rises=F Damp=F
 DIIS: error= 1.73D-04 at cycle   5 NSaved=   5.
 NSaved= 5 IEnMin= 5 EnMin= -76.0040638430368     IErMin= 5 ErrMin= 1.73D-04
 ErrMax= 1.73D-04  0.00D+00 EMaxC= 1.00D-01 BMatC= 1.99D-07 BMatP= 2.43D-05
 IDIUse=3 WtCom= 9.98D-01 WtEn= 1.73D-03
 Coeff-Com:  0.218D-04 0.627D-02 0.119D-01-0.208D+00 0.119D+01
 Coeff-En:   0.000D+00 0.000D+00 0.000D+00 0.000D+00 0.100D+01
 Coeff:      0.217D-04 0.626D-02 0.119D-01-0.208D+00 0.119D+01
 Gap=     0.702 Goal=   None    Shift=    0.000
 RMSDP=4.07D-05 MaxDP=3.31D-04 DE=-2.32D-05 OVMax= 3.37D-04

 Cycle   6  Pass 1  IDiag  1:
 E= -76.0040642860621     Delta-E=       -0.000000443025 Rises=F Damp=F
 DIIS: error= 2.86D-05 at cycle   6 NSaved=   6.
 NSaved= 6 IEnMin= 6 EnMin= -76.0040642860621     IErMin= 6 ErrMin= 2.86D-05
 ErrMax= 2.86D-05  0.00D+00 EMaxC= 1.00D-01 BMatC= 6.93D-09 BMatP= 1.99D-07
 IDIUse=1 WtCom= 1.00D+00 WtEn= 0.00D+00
 Coeff-Com: -0.236D-03 0.180D-02 0.745D-02-0.135D-01-0.248D+00 0.125D+01
 Coeff:     -0.236D-03 0.180D-02 0.745D-02-0.135D-01-0.248D+00 0.125D+01
 Gap=     0.702 Goal=   None    Shift=    0.000
 RMSDP=1.01D-05 MaxDP=6.67D-05 DE=-4.43D-07 OVMax= 8.25D-05

 Cycle   7  Pass 1  IDiag  1:
 E= -76.0040643025433     Delta-E=       -0.000000016481 Rises=F Damp=F
 DIIS: error= 3.37D-06 at cycle   7 NSaved=   7.
 NSaved= 7 IEnMin= 7 EnMin= -76.0040643025433     IErMin= 7 ErrMin= 3.37D-06
 ErrMax= 3.37D-06  0.00D+00 EMaxC= 1.00D-01 BMatC= 1.92D-10 BMatP= 6.93D-09
 IDIUse=1 WtCom= 1.00D+00 WtEn= 0.00D+00
 Coeff-Com:  0.825D-04-0.800D-03-0.300D-02 0.101D-01 0.644D-01-0.437D+00
 Coeff-Com:  0.137D+01
 Coeff:      0.825D-04-0.800D-03-0.300D-02 0.101D-01 0.644D-01-0.437D+00
 Coeff:      0.137D+01
 Gap=     0.702 Goal=   None    Shift=    0.000
 RMSDP=1.30D-06 MaxDP=1.06D-05 DE=-1.65D-08 OVMax= 1.20D-05

 Cycle   8  Pass 1  IDiag  1:
 E= -76.0040643030080     Delta-E=       -0.000000000465 Rises=F Damp=F
 DIIS: error= 7.64D-07 at cycle   8 NSaved=   8.
 NSaved= 8 IEnMin= 8 EnMin= -76.0040643030080     IErMin= 8 ErrMin= 7.64D-07
 ErrMax= 7.64D-07  0.00D+00 EMaxC= 1.00D-01 BMatC= 8.76D-12 BMatP= 1.92D-10
 IDIUse=1 WtCom= 1.00D+00 WtEn= 0.00D+00
 Coeff-Com: -0.108D-04 0.140D-03 0.483D-03-0.254D-02-0.348D-02 0.560D-01
 Coeff-Com: -0.384D+00 0.133D+01
 Coeff:     -0.108D-04 0.140D-03 0.483D-03-0.254D-02-0.348D-02 0.560D-01
 Coeff:     -0.384D+00 0.133D+01
 Gap=     0.702 Goal=   None    Shift=    0.000
 RMSDP=3.33D-07 MaxDP=2.07D-06 DE=-4.65D-10 OVMax= 3.08D-06

 Cycle   9  Pass 1  IDiag  1:
 E= -76.0040643030327     Delta-E=       -0.000000000025 Rises=F Damp=F
 DIIS: error= 1.24D-07 at cycle   9 NSaved=   9.
 NSaved= 9 IEnMin= 9 EnMin= -76.0040643030327     IErMin= 9 ErrMin= 1.24D-07
 ErrMax= 1.24D-07  0.00D+00 EMaxC= 1.00D-01 BMatC= 1.93D-13 BMatP= 8.76D-12
 IDIUse=1 WtCom= 1.00D+00 WtEn= 0.00D+00
 Coeff-Com: -0.449D-06-0.423D-05-0.611D-05 0.232D-03-0.134D-02 0.136D-02
 Coeff-Com:  0.463D-01-0.329D+00 0.128D+01
 Coeff:     -0.449D-06-0.423D-05-0.611D-05 0.232D-03-0.134D-02 0.136D-02
 Coeff:      0.463D-01-0.329D+00 0.128D+01
 Gap=     0.702 Goal=   None    Shift=    0.000
 RMSDP=6.26D-08 MaxDP=3.20D-07 DE=-2.47D-11 OVMax= 6.24D-07

 Cycle  10  Pass 1  IDiag  1:
 E= -76.0040643030332     Delta-E=       -0.000000000001 Rises=F Damp=F
 DIIS: error= 1.68D-08 at cycle  10 NSaved=  10.
 NSaved=10 IEnMin=10 EnMin= -76.0040643030332     IErMin=10 ErrMin= 1.68D-08
 ErrMax= 1.68D-08  0.00D+00 EMaxC= 1.00D-01 BMatC= 3.70D-15 BMatP= 1.93D-13
 IDIUse=1 WtCom= 1.00D+00 WtEn= 0.00D+00
 Coeff-Com:  0.318D-06-0.300D-05-0.111D-04 0.336D-04 0.250D-03-0.154D-02
 Coeff-Com:  0.483D-02-0.186D-02-0.120D+00 0.112D+01
 Coeff:      0.318D-06-0.300D-05-0.111D-04 0.336D-04 0.250D-03-0.154D-02
 Coeff:      0.483D-02-0.186D-02-0.120D+00 0.112D+01
 Gap=     0.702 Goal=   None    Shift=    0.000
 RMSDP=6.68D-09 MaxDP=3.55D-08 DE=-5.12D-13 OVMax= 6.72D-08

 SCF Done:  E(RHF) =  -76.0040643030     A.U. after   10 cycles
            NFock= 10  Conv=0.67D-08     -V/T= 2.0035
 KE= 7.574189976601D+01 PE=-1.983634852515D+02 EE= 3.764123391832D+01
 Leave Link  502 at Wed Feb  8 15:06:20 2023, MaxMem=   754974720 cpu:               0.4 elap:               0.1
 (Enter /opt/cluster/programs/g16-c.01/g16/l601.exe)
 Copying SCF densities to generalized density rwf, IOpCl= 0 IROHF=0.

 **********************************************************************

            Population analysis using the SCF Density.

 **********************************************************************

 Orbital symmetries:
       Occupied  (A') (A') (A') (A') (A")
       Virtual   (A') (A') (A') (A') (A") (A') (A') (A') (A') (A")
                 (A") (A') (A') (A')
 The electronic state is 1-A'.
 Alpha  occ. eigenvalues --  -20.57105  -1.33771  -0.67393  -0.58651  -0.50035
 Alpha virt. eigenvalues --    0.20203   0.29521   0.97213   1.12790   1.16493
 Alpha virt. eigenvalues --    1.17337   1.36520   1.47566   2.00227   2.04699
 Alpha virt. eigenvalues --    2.06112   2.59892   2.87346   3.93723
          Condensed to atoms (all electrons):
               1          2          3
     1  O    8.328610   0.258871   0.256460
     2  H    0.258871   0.338979  -0.024458
     3  H    0.256460  -0.024458   0.350664
 Mulliken charges:
               1
     1  O   -0.843941
     2  H    0.426607
     3  H    0.417333
 Sum of Mulliken charges =   0.00000
 Mulliken charges with hydrogens summed into heavy atoms:
               1
     1  O    0.000000
 Electronic spatial extent (au):  <R**2>=             19.3303
 Charge=              0.0000 electrons
 Dipole moment (field-independent basis, Debye):
    X=              0.0488    Y=             -2.4143    Z=              0.0000  Tot=              2.4148
 Quadrupole moment (field-independent basis, Debye-Ang):
   XX=             -4.5737   YY=             -5.6939   ZZ=             -7.2835
   XY=              0.0967   XZ=              0.0000   YZ=              0.0000
 Traceless Quadrupole moment (field-independent basis, Debye-Ang):
   XX=              1.2766   YY=              0.1565   ZZ=             -1.4331
   XY=              0.0967   XZ=              0.0000   YZ=              0.0000
 Octapole moment (field-independent basis, Debye-Ang**2):
  XXX=              0.1073  YYY=             -1.6571  ZZZ=              0.0000  XYY=             -0.0773
  XXY=             -1.3788  XXZ=              0.0000  XZZ=              0.0375  YZZ=             -0.3947
  YYZ=              0.0000  XYZ=              0.0000
 Hexadecapole moment (field-independent basis, Debye-Ang**3):
 XXXX=             -6.0025 YYYY=             -6.3830 ZZZZ=             -5.2698 XXXY=             -0.0462
 XXXZ=              0.0000 YYYX=              0.0014 YYYZ=              0.0000 ZZZX=              0.0000
 ZZZY=              0.0000 XXYY=             -1.6045 XXZZ=             -2.0839 YYZZ=             -2.0275
 XXYZ=              0.0000 YYXZ=              0.0000 ZZXY=             -0.0367
 N-N= 8.976287264149D+00 E-N=-1.983634852835D+02  KE= 7.574189976601D+01
 Symmetry A'   KE= 7.116776295874D+01
 Symmetry A"   KE= 4.574136807263D+00
 No NMR shielding tensors so no spin-rotation constants.
 Leave Link  601 at Wed Feb  8 15:06:20 2023, MaxMem=   754974720 cpu:               0.6 elap:               0.2
 (Enter /opt/cluster/programs/g16-c.01/g16/l9999.exe)
 Unable to Open any file for archive entry.
 1\1\GINC-NODE66\SP\RHF\6-31G(d)\H2O1\BOITTIER\08-Feb-2023\0\\#P HF/6-3
 1g* scf(maxcycle=200)\\Gaussian input\\0,1\O,0,0.,0.11751,0.\H,0,0.757
 8497316,-0.4701504329,0.\H,0,-0.6783023618,-0.6294752114,0.\\Version=E
 S64L-G16RevC.01\State=1-A'\HF=-76.0040643\RMSD=6.682e-09\Dipole=0.0756
 779,-0.9470465,0.\Quadrupole=0.9376503,0.1278166,-1.0654669,0.1208777,
 0.,0.\PG=CS [SG(H2O1)]\\@
 The archive entry for this job was punched.


 Until you make peace with who you are,
 you'll never be content with what you have.
                           -- Doris Mortman
 Job cpu time:       0 days  0 hours  0 minutes  3.2 seconds.
 Elapsed time:       0 days  0 hours  0 minutes  1.0 seconds.
 File lengths (MBytes):  RWF=      6 Int=      0 D2E=      0 Chk=      1 Scr=      1
 Normal termination of Gaussian 16 at Wed Feb  8 15:06:20 2023.
