 Entering Gaussian System, Link 0=/opt/cluster/programs/g16-c.01/g16/g16
 Input=/scratch/boittier/jobs/tmp.7262656/gaussian_127_water_hf_pdz.com
 Output=/scratch/boittier/jobs/tmp.7262656/gaussian_127_water_hf_pdz.out
 Initial command:
 /opt/cluster/programs/g16-c.01/g16/l1.exe "/scratch/boittier/jobs/tmp.7262656/Gau-56150.inp" -scrdir="/scratch/boittier/jobs/tmp.7262656/"
 Entering Link 1 = /opt/cluster/programs/g16-c.01/g16/l1.exe PID=     56151.
  
 Copyright (c) 1988-2019, Gaussian, Inc.  All Rights Reserved.
  
 This is part of the Gaussian(R) 16 program.  It is based on
 the Gaussian(R) 09 system (copyright 2009, Gaussian, Inc.),
 the Gaussian(R) 03 system (copyright 2003, Gaussian, Inc.),
 the Gaussian(R) 98 system (copyright 1998, Gaussian, Inc.),
 the Gaussian(R) 94 system (copyright 1995, Gaussian, Inc.),
 the Gaussian 92(TM) system (copyright 1992, Gaussian, Inc.),
 the Gaussian 90(TM) system (copyright 1990, Gaussian, Inc.),
 the Gaussian 88(TM) system (copyright 1988, Gaussian, Inc.),
 the Gaussian 86(TM) system (copyright 1986, Carnegie Mellon
 University), and the Gaussian 82(TM) system (copyright 1983,
 Carnegie Mellon University). Gaussian is a federally registered
 trademark of Gaussian, Inc.
  
 This software contains proprietary and confidential information,
 including trade secrets, belonging to Gaussian, Inc.
  
 This software is provided under written license and may be
 used, copied, transmitted, or stored only in accord with that
 written license.
  
 The following legend is applicable only to US Government
 contracts under FAR:
  
                    RESTRICTED RIGHTS LEGEND
  
 Use, reproduction and disclosure by the US Government is
 subject to restrictions as set forth in subparagraphs (a)
 and (c) of the Commercial Computer Software - Restricted
 Rights clause in FAR 52.227-19.
  
 Gaussian, Inc.
 340 Quinnipiac St., Bldg. 40, Wallingford CT 06492
  
  
 ---------------------------------------------------------------
 Warning -- This program may not be used in any manner that
 competes with the business of Gaussian, Inc. or will provide
 assistance to any competitor of Gaussian, Inc.  The licensee
 of this program is prohibited from giving any competitor of
 Gaussian, Inc. access to this program.  By using this program,
 the user acknowledges that Gaussian, Inc. is engaged in the
 business of creating and licensing software in the field of
 computational chemistry and represents and warrants to the
 licensee that it is not a competitor of Gaussian, Inc. and that
 it will not use this program in any manner prohibited above.
 ---------------------------------------------------------------
  

 Cite this work as:
 Gaussian 16, Revision C.01,
 M. J. Frisch, G. W. Trucks, H. B. Schlegel, G. E. Scuseria, 
 M. A. Robb, J. R. Cheeseman, G. Scalmani, V. Barone, 
 G. A. Petersson, H. Nakatsuji, X. Li, M. Caricato, A. V. Marenich, 
 J. Bloino, B. G. Janesko, R. Gomperts, B. Mennucci, H. P. Hratchian, 
 J. V. Ortiz, A. F. Izmaylov, J. L. Sonnenberg, D. Williams-Young, 
 F. Ding, F. Lipparini, F. Egidi, J. Goings, B. Peng, A. Petrone, 
 T. Henderson, D. Ranasinghe, V. G. Zakrzewski, J. Gao, N. Rega, 
 G. Zheng, W. Liang, M. Hada, M. Ehara, K. Toyota, R. Fukuda, 
 J. Hasegawa, M. Ishida, T. Nakajima, Y. Honda, O. Kitao, H. Nakai, 
 T. Vreven, K. Throssell, J. A. Montgomery, Jr., J. E. Peralta, 
 F. Ogliaro, M. J. Bearpark, J. J. Heyd, E. N. Brothers, K. N. Kudin, 
 V. N. Staroverov, T. A. Keith, R. Kobayashi, J. Normand, 
 K. Raghavachari, A. P. Rendell, J. C. Burant, S. S. Iyengar, 
 J. Tomasi, M. Cossi, J. M. Millam, M. Klene, C. Adamo, R. Cammi, 
 J. W. Ochterski, R. L. Martin, K. Morokuma, O. Farkas, 
 J. B. Foresman, and D. J. Fox, Gaussian, Inc., Wallingford CT, 2019.
 
 ******************************************
 Gaussian 16:  ES64L-G16RevC.01  3-Jul-2019
                 8-Feb-2023 
 ******************************************
 %nproc=4
 Will use up to    4 processors via shared memory.
 %mem=5760MB
 %chk=gaussian_127_water_hf_pdz.chk
 ------------------------------
 #P HF/6-31g* scf(maxcycle=200)
 ------------------------------
 1/38=1,172=1/1;
 2/12=2,17=6,18=5,40=1/2;
 3/5=1,6=6,7=1,11=9,25=1,30=1/1,2,3;
 4//1;
 5/5=2,7=200,38=5/2;
 6/7=2,8=2,9=2,10=2,28=1/1;
 99/5=1,9=1/99;
 Leave Link    1 at Wed Feb  8 15:06:50 2023, MaxMem=   754974720 cpu:               0.1 elap:               0.0
 (Enter /opt/cluster/programs/g16-c.01/g16/l101.exe)
 --------------
 Gaussian input
 --------------
 Symbolic Z-matrix:
 Charge =  0 Multiplicity = 1
 O                     0.        0.11751   0. 
 H                     0.79736  -0.50079   0. 
 H                    -0.65653  -0.51118   0. 
 
 ITRead=  0  0  0
 MicOpt= -1 -1 -1
 NAtoms=      3 NQM=        3 NQMF=       0 NMMI=      0 NMMIF=      0
                NMic=       0 NMicF=      0.
                    Isotopes and Nuclear Properties:
 (Nuclear quadrupole moments (NQMom) in fm**2, nuclear magnetic moments (NMagM)
  in nuclear magnetons)

  Atom         1           2           3
 IAtWgt=          16           1           1
 AtmWgt=  15.9949146   1.0078250   1.0078250
 NucSpn=           0           1           1
 AtZEff=  -0.0000000  -0.0000000  -0.0000000
 NQMom=    0.0000000   0.0000000   0.0000000
 NMagM=    0.0000000   2.7928460   2.7928460
 AtZNuc=   8.0000000   1.0000000   1.0000000
 Leave Link  101 at Wed Feb  8 15:06:50 2023, MaxMem=   754974720 cpu:               0.6 elap:               0.2
 (Enter /opt/cluster/programs/g16-c.01/g16/l202.exe)
                          Input orientation:                          
 ---------------------------------------------------------------------
 Center     Atomic      Atomic             Coordinates (Angstroms)
 Number     Number       Type             X           Y           Z
 ---------------------------------------------------------------------
      1          8           0        0.000000    0.117510    0.000000
      2          1           0        0.797362   -0.500790    0.000000
      3          1           0       -0.656531   -0.511177    0.000000
 ---------------------------------------------------------------------
                    Distance matrix (angstroms):
                    1          2          3
     1  O    0.000000
     2  H    1.009000   0.000000
     3  H    0.909000   1.453931   0.000000
 Stoichiometry    H2O
 Framework group  CS[SG(H2O)]
 Deg. of freedom     3
 Full point group                 CS      NOp   2
 Largest Abelian subgroup         CS      NOp   2
 Largest concise Abelian subgroup C1      NOp   1
                         Standard orientation:                         
 ---------------------------------------------------------------------
 Center     Atomic      Atomic             Coordinates (Angstroms)
 Number     Number       Type             X           Y           Z
 ---------------------------------------------------------------------
      1          8           0        0.000000    0.125491    0.000000
      2          1           0        0.722938   -0.578385   -0.000000
      3          1           0       -0.722938   -0.425546   -0.000000
 ---------------------------------------------------------------------
 Rotational constants (GHZ):         739.8884259         464.9580004         285.5277117
 Leave Link  202 at Wed Feb  8 15:06:50 2023, MaxMem=   754974720 cpu:               0.1 elap:               0.0
 (Enter /opt/cluster/programs/g16-c.01/g16/l301.exe)
 Standard basis: 6-31G(d) (6D, 7F)
 Ernie: Thresh=  0.10000D-02 Tol=  0.10000D-05 Strict=F.
 There are    15 symmetry adapted cartesian basis functions of A'  symmetry.
 There are     4 symmetry adapted cartesian basis functions of A"  symmetry.
 There are    15 symmetry adapted basis functions of A'  symmetry.
 There are     4 symmetry adapted basis functions of A"  symmetry.
    19 basis functions,    36 primitive gaussians,    19 cartesian basis functions
     5 alpha electrons        5 beta electrons
       nuclear repulsion energy         9.2168450984 Hartrees.
 IExCor=    0 DFT=F Ex=HF Corr=None ExCW=0 ScaHFX=  1.000000
 ScaDFX=  1.000000  1.000000  1.000000  1.000000 ScalE2=  1.000000  1.000000
 IRadAn=      5 IRanWt=     -1 IRanGd=            0 ICorTp=0 IEmpDi=  4
 NAtoms=    3 NActive=    3 NUniq=    3 SFac= 1.00D+00 NAtFMM=   60 NAOKFM=F Big=F
 Integral buffers will be    131072 words long.
 Raffenetti 1 integral format.
 Two-electron integral symmetry is turned on.
 Leave Link  301 at Wed Feb  8 15:06:50 2023, MaxMem=   754974720 cpu:               0.1 elap:               0.0
 (Enter /opt/cluster/programs/g16-c.01/g16/l302.exe)
 NPDir=0 NMtPBC=     1 NCelOv=     1 NCel=       1 NClECP=     1 NCelD=      1
         NCelK=      1 NCelE2=     1 NClLst=     1 CellRange=     0.0.
 One-electron integrals computed using PRISM.
 One-electron integral symmetry used in STVInt
 NBasis=    19 RedAO= T EigKep=  2.21D-02  NBF=    15     4
 NBsUse=    19 1.00D-06 EigRej= -1.00D+00 NBFU=    15     4
 Leave Link  302 at Wed Feb  8 15:06:50 2023, MaxMem=   754974720 cpu:               0.4 elap:               0.1
 (Enter /opt/cluster/programs/g16-c.01/g16/l303.exe)
 DipDrv:  MaxL=1.
 Leave Link  303 at Wed Feb  8 15:06:50 2023, MaxMem=   754974720 cpu:               0.2 elap:               0.1
 (Enter /opt/cluster/programs/g16-c.01/g16/l401.exe)
 ExpMin= 1.61D-01 ExpMax= 5.48D+03 ExpMxC= 8.25D+02 IAcc=3 IRadAn=         5 AccDes= 0.00D+00
 Harris functional with IExCor=  205 and IRadAn=       5 diagonalized for initial guess.
 HarFok:  IExCor=  205 AccDes= 0.00D+00 IRadAn=         5 IDoV= 1 UseB2=F ITyADJ=14
 ICtDFT=  3500011 ScaDFX=  1.000000  1.000000  1.000000  1.000000
 FoFCou: FMM=F IPFlag=           0 FMFlag=      100000 FMFlg1=           0
         NFxFlg=           0 DoJE=T BraDBF=F KetDBF=T FulRan=T
         wScrn=  0.000000 ICntrl=       500 IOpCl=  0 I1Cent=   200000004 NGrid=           0
         NMat0=    1 NMatS0=      1 NMatT0=    0 NMatD0=    1 NMtDS0=    0 NMtDT0=    0
 Petite list used in FoFCou.
 Harris En= -76.0966096113684    
 JPrj=0 DoOrth=F DoCkMO=F.
 Initial guess orbital symmetries:
       Occupied  (A') (A') (A') (A') (A")
       Virtual   (A') (A') (A') (A') (A") (A') (A') (A') (A') (A")
                 (A") (A') (A') (A')
 The electronic state of the initial guess is 1-A'.
 Leave Link  401 at Wed Feb  8 15:06:50 2023, MaxMem=   754974720 cpu:               0.6 elap:               0.2
 (Enter /opt/cluster/programs/g16-c.01/g16/l502.exe)
 Keep R1 ints in memory in symmetry-blocked form, NReq=845369.
 FoFCou: FMM=F IPFlag=           0 FMFlag=           0 FMFlg1=           0
         NFxFlg=           0 DoJE=F BraDBF=F KetDBF=F FulRan=T
         wScrn=  0.000000 ICntrl=       600 IOpCl=  0 I1Cent=           0 NGrid=           0
         NMat0=    1 NMatS0=    190 NMatT0=    0 NMatD0=    1 NMtDS0=    0 NMtDT0=    0
 Petite list used in FoFCou.
 Closed shell SCF:
 Using DIIS extrapolation, IDIIS=  1040.
 NGot=   754974720 LenX=   754962225 LenY=   754961343
 Requested convergence on RMS density matrix=1.00D-08 within 200 cycles.
 Requested convergence on MAX density matrix=1.00D-06.
 Requested convergence on             energy=1.00D-06.
 No special actions if energy rises.

 Cycle   1  Pass 1  IDiag  1:
 E= -75.9189056523869    
 DIIS: error= 7.73D-02 at cycle   1 NSaved=   1.
 NSaved= 1 IEnMin= 1 EnMin= -75.9189056523869     IErMin= 1 ErrMin= 7.73D-02
 ErrMax= 7.73D-02  0.00D+00 EMaxC= 1.00D-01 BMatC= 1.35D-01 BMatP= 1.35D-01
 IDIUse=3 WtCom= 2.27D-01 WtEn= 7.73D-01
 Coeff-Com:  0.100D+01
 Coeff-En:   0.100D+01
 Coeff:      0.100D+01
 Gap=     0.583 Goal=   None    Shift=    0.000
 GapD=    0.583 DampG=2.000 DampE=0.500 DampFc=1.0000 IDamp=-1.
 RMSDP=1.57D-02 MaxDP=1.22D-01              OVMax= 1.30D-01

 Cycle   2  Pass 1  IDiag  1:
 E= -75.9762849369890     Delta-E=       -0.057379284602 Rises=F Damp=F
 DIIS: error= 5.22D-02 at cycle   2 NSaved=   2.
 NSaved= 2 IEnMin= 2 EnMin= -75.9762849369890     IErMin= 2 ErrMin= 5.22D-02
 ErrMax= 5.22D-02  0.00D+00 EMaxC= 1.00D-01 BMatC= 4.22D-02 BMatP= 1.35D-01
 IDIUse=3 WtCom= 4.78D-01 WtEn= 5.22D-01
 Coeff-Com:  0.341D+00 0.659D+00
 Coeff-En:   0.996D-01 0.900D+00
 Coeff:      0.215D+00 0.785D+00
 Gap=     0.730 Goal=   None    Shift=    0.000
 RMSDP=7.84D-03 MaxDP=5.98D-02 DE=-5.74D-02 OVMax= 5.05D-02

 Cycle   3  Pass 1  IDiag  1:
 E= -76.0021518028939     Delta-E=       -0.025866865905 Rises=F Damp=F
 DIIS: error= 1.12D-02 at cycle   3 NSaved=   3.
 NSaved= 3 IEnMin= 3 EnMin= -76.0021518028939     IErMin= 3 ErrMin= 1.12D-02
 ErrMax= 1.12D-02  0.00D+00 EMaxC= 1.00D-01 BMatC= 2.53D-03 BMatP= 4.22D-02
 IDIUse=3 WtCom= 8.88D-01 WtEn= 1.12D-01
 Coeff-Com: -0.267D-01 0.169D+00 0.858D+00
 Coeff-En:   0.000D+00 0.000D+00 0.100D+01
 Coeff:     -0.237D-01 0.150D+00 0.874D+00
 Gap=     0.703 Goal=   None    Shift=    0.000
 RMSDP=1.56D-03 MaxDP=1.26D-02 DE=-2.59D-02 OVMax= 1.36D-02

 Cycle   4  Pass 1  IDiag  1:
 E= -76.0039813675730     Delta-E=       -0.001829564679 Rises=F Damp=F
 DIIS: error= 1.59D-03 at cycle   4 NSaved=   4.
 NSaved= 4 IEnMin= 4 EnMin= -76.0039813675730     IErMin= 4 ErrMin= 1.59D-03
 ErrMax= 1.59D-03  0.00D+00 EMaxC= 1.00D-01 BMatC= 2.43D-05 BMatP= 2.53D-03
 IDIUse=3 WtCom= 9.84D-01 WtEn= 1.59D-02
 Coeff-Com:  0.629D-02-0.782D-01-0.248D+00 0.132D+01
 Coeff-En:   0.000D+00 0.000D+00 0.000D+00 0.100D+01
 Coeff:      0.619D-02-0.770D-01-0.244D+00 0.131D+01
 Gap=     0.707 Goal=   None    Shift=    0.000
 RMSDP=2.30D-04 MaxDP=2.16D-03 DE=-1.83D-03 OVMax= 1.75D-03

 Cycle   5  Pass 1  IDiag  1:
 E= -76.0040045334256     Delta-E=       -0.000023165853 Rises=F Damp=F
 DIIS: error= 1.57D-04 at cycle   5 NSaved=   5.
 NSaved= 5 IEnMin= 5 EnMin= -76.0040045334256     IErMin= 5 ErrMin= 1.57D-04
 ErrMax= 1.57D-04  0.00D+00 EMaxC= 1.00D-01 BMatC= 1.95D-07 BMatP= 2.43D-05
 IDIUse=3 WtCom= 9.98D-01 WtEn= 1.57D-03
 Coeff-Com: -0.957D-04 0.751D-02 0.155D-01-0.227D+00 0.120D+01
 Coeff-En:   0.000D+00 0.000D+00 0.000D+00 0.000D+00 0.100D+01
 Coeff:     -0.955D-04 0.749D-02 0.155D-01-0.226D+00 0.120D+01
 Gap=     0.707 Goal=   None    Shift=    0.000
 RMSDP=4.34D-05 MaxDP=3.03D-04 DE=-2.32D-05 OVMax= 3.93D-04

 Cycle   6  Pass 1  IDiag  1:
 E= -76.0040049962165     Delta-E=       -0.000000462791 Rises=F Damp=F
 DIIS: error= 2.50D-05 at cycle   6 NSaved=   6.
 NSaved= 6 IEnMin= 6 EnMin= -76.0040049962165     IErMin= 6 ErrMin= 2.50D-05
 ErrMax= 2.50D-05  0.00D+00 EMaxC= 1.00D-01 BMatC= 7.42D-09 BMatP= 1.95D-07
 IDIUse=1 WtCom= 1.00D+00 WtEn= 0.00D+00
 Coeff-Com: -0.239D-03 0.187D-02 0.758D-02-0.133D-01-0.253D+00 0.126D+01
 Coeff:     -0.239D-03 0.187D-02 0.758D-02-0.133D-01-0.253D+00 0.126D+01
 Gap=     0.707 Goal=   None    Shift=    0.000
 RMSDP=1.10D-05 MaxDP=5.98D-05 DE=-4.63D-07 OVMax= 9.83D-05

 Cycle   7  Pass 1  IDiag  1:
 E= -76.0040050153453     Delta-E=       -0.000000019129 Rises=F Damp=F
 DIIS: error= 3.42D-06 at cycle   7 NSaved=   7.
 NSaved= 7 IEnMin= 7 EnMin= -76.0040050153453     IErMin= 7 ErrMin= 3.42D-06
 ErrMax= 3.42D-06  0.00D+00 EMaxC= 1.00D-01 BMatC= 2.52D-10 BMatP= 7.42D-09
 IDIUse=1 WtCom= 1.00D+00 WtEn= 0.00D+00
 Coeff-Com:  0.864D-04-0.898D-03-0.322D-02 0.119D-01 0.582D-01-0.439D+00
 Coeff-Com:  0.137D+01
 Coeff:      0.864D-04-0.898D-03-0.322D-02 0.119D-01 0.582D-01-0.439D+00
 Coeff:      0.137D+01
 Gap=     0.707 Goal=   None    Shift=    0.000
 RMSDP=1.54D-06 MaxDP=1.17D-05 DE=-1.91D-08 OVMax= 1.41D-05

 Cycle   8  Pass 1  IDiag  1:
 E= -76.0040050159612     Delta-E=       -0.000000000616 Rises=F Damp=F
 DIIS: error= 8.63D-07 at cycle   8 NSaved=   8.
 NSaved= 8 IEnMin= 8 EnMin= -76.0040050159612     IErMin= 8 ErrMin= 8.63D-07
 ErrMax= 8.63D-07  0.00D+00 EMaxC= 1.00D-01 BMatC= 9.14D-12 BMatP= 2.52D-10
 IDIUse=1 WtCom= 1.00D+00 WtEn= 0.00D+00
 Coeff-Com: -0.576D-05 0.995D-04 0.308D-03-0.212D-02 0.210D-02 0.274D-01
 Coeff-Com: -0.286D+00 0.126D+01
 Coeff:     -0.576D-05 0.995D-04 0.308D-03-0.212D-02 0.210D-02 0.274D-01
 Coeff:     -0.286D+00 0.126D+01
 Gap=     0.707 Goal=   None    Shift=    0.000
 RMSDP=3.18D-07 MaxDP=1.89D-06 DE=-6.16D-10 OVMax= 2.76D-06

 Cycle   9  Pass 1  IDiag  1:
 E= -76.0040050159850     Delta-E=       -0.000000000024 Rises=F Damp=F
 DIIS: error= 1.22D-07 at cycle   9 NSaved=   9.
 NSaved= 9 IEnMin= 9 EnMin= -76.0040050159850     IErMin= 9 ErrMin= 1.22D-07
 ErrMax= 1.22D-07  0.00D+00 EMaxC= 1.00D-01 BMatC= 2.14D-13 BMatP= 9.14D-12
 IDIUse=1 WtCom= 1.00D+00 WtEn= 0.00D+00
 Coeff-Com: -0.180D-05 0.108D-04 0.483D-04 0.272D-05-0.222D-02 0.809D-02
 Coeff-Com:  0.142D-01-0.258D+00 0.124D+01
 Coeff:     -0.180D-05 0.108D-04 0.483D-04 0.272D-05-0.222D-02 0.809D-02
 Coeff:      0.142D-01-0.258D+00 0.124D+01
 Gap=     0.707 Goal=   None    Shift=    0.000
 RMSDP=6.13D-08 MaxDP=3.35D-07 DE=-2.38D-11 OVMax= 5.79D-07

 Cycle  10  Pass 1  IDiag  1:
 E= -76.0040050159857     Delta-E=       -0.000000000001 Rises=F Damp=F
 DIIS: error= 1.86D-08 at cycle  10 NSaved=  10.
 NSaved=10 IEnMin=10 EnMin= -76.0040050159857     IErMin=10 ErrMin= 1.86D-08
 ErrMax= 1.86D-08  0.00D+00 EMaxC= 1.00D-01 BMatC= 4.79D-15 BMatP= 2.14D-13
 IDIUse=1 WtCom= 1.00D+00 WtEn= 0.00D+00
 Coeff-Com:  0.384D-06-0.411D-05-0.144D-04 0.551D-04 0.246D-03-0.181D-02
 Coeff-Com:  0.635D-02-0.394D-02-0.159D+00 0.116D+01
 Coeff:      0.384D-06-0.411D-05-0.144D-04 0.551D-04 0.246D-03-0.181D-02
 Coeff:      0.635D-02-0.394D-02-0.159D+00 0.116D+01
 Gap=     0.707 Goal=   None    Shift=    0.000
 RMSDP=8.91D-09 MaxDP=4.88D-08 DE=-7.11D-13 OVMax= 8.34D-08

 SCF Done:  E(RHF) =  -76.0040050160     A.U. after   10 cycles
            NFock= 10  Conv=0.89D-08     -V/T= 2.0021
 KE= 7.584259270706D+01 PE=-1.989028513578D+02 EE= 3.783940853634D+01
 Leave Link  502 at Wed Feb  8 15:06:50 2023, MaxMem=   754974720 cpu:               0.5 elap:               0.2
 (Enter /opt/cluster/programs/g16-c.01/g16/l601.exe)
 Copying SCF densities to generalized density rwf, IOpCl= 0 IROHF=0.

 **********************************************************************

            Population analysis using the SCF Density.

 **********************************************************************

 Orbital symmetries:
       Occupied  (A') (A') (A') (A') (A")
       Virtual   (A') (A') (A') (A') (A") (A') (A') (A') (A') (A")
                 (A") (A') (A') (A')
 The electronic state is 1-A'.
 Alpha  occ. eigenvalues --  -20.56372  -1.34887  -0.69532  -0.58228  -0.50053
 Alpha virt. eigenvalues --    0.20664   0.30382   0.98916   1.13161   1.16606
 Alpha virt. eigenvalues --    1.20065   1.38278   1.45930   2.00353   2.03756
 Alpha virt. eigenvalues --    2.06193   2.60611   2.94990   3.95924
          Condensed to atoms (all electrons):
               1          2          3
     1  O    8.321990   0.261314   0.268438
     2  H    0.261314   0.341298  -0.022423
     3  H    0.268438  -0.022423   0.322055
 Mulliken charges:
               1
     1  O   -0.851742
     2  H    0.419812
     3  H    0.431930
 Sum of Mulliken charges =  -0.00000
 Mulliken charges with hydrogens summed into heavy atoms:
               1
     1  O   -0.000000
 Electronic spatial extent (au):  <R**2>=             18.9932
 Charge=             -0.0000 electrons
 Dipole moment (field-independent basis, Debye):
    X=             -0.0889    Y=             -2.3263    Z=             -0.0000  Tot=              2.3280
 Quadrupole moment (field-independent basis, Debye-Ang):
   XX=             -4.4274   YY=             -5.7872   ZZ=             -7.2295
   XY=             -0.2163   XZ=              0.0000   YZ=              0.0000
 Traceless Quadrupole moment (field-independent basis, Debye-Ang):
   XX=              1.3873   YY=              0.0275   ZZ=             -1.4148
   XY=             -0.2163   XZ=              0.0000   YZ=              0.0000
 Octapole moment (field-independent basis, Debye-Ang**2):
  XXX=             -0.1977  YYY=             -1.5940  ZZZ=             -0.0000  XYY=              0.1567
  XXY=             -1.3354  XXZ=             -0.0000  XZZ=             -0.0724  YZZ=             -0.3957
  YYZ=             -0.0000  XYZ=              0.0000
 Hexadecapole moment (field-independent basis, Debye-Ang**3):
 XXXX=             -5.6811 YYYY=             -6.1748 ZZZZ=             -5.2110 XXXY=              0.0663
 XXXZ=              0.0000 YYYX=             -0.0036 YYYZ=              0.0000 ZZZX=              0.0000
 ZZZY=              0.0000 XXYY=             -1.5770 XXZZ=             -2.0263 YYZZ=             -1.9705
 XXYZ=              0.0000 YYXZ=              0.0000 ZZXY=              0.0689
 N-N= 9.216845098411D+00 E-N=-1.989028513208D+02  KE= 7.584259270706D+01
 Symmetry A'   KE= 7.127755088492D+01
 Symmetry A"   KE= 4.565041822135D+00
 No NMR shielding tensors so no spin-rotation constants.
 Leave Link  601 at Wed Feb  8 15:06:51 2023, MaxMem=   754974720 cpu:               0.5 elap:               0.1
 (Enter /opt/cluster/programs/g16-c.01/g16/l9999.exe)
 Unable to Open any file for archive entry.
 1\1\GINC-NODE58\SP\RHF\6-31G(d)\H2O1\BOITTIER\08-Feb-2023\0\\#P HF/6-3
 1g* scf(maxcycle=200)\\Gaussian input\\0,1\O,0,0.,0.11751,0.\H,0,0.797
 3622306,-0.5007896629,0.\H,0,-0.6565314262,-0.5111771133,0.\\Version=E
 S64L-G16RevC.01\State=1-A'\HF=-76.004005\RMSD=8.909e-09\Dipole=0.06795
 68,-0.9133745,0.\Quadrupole=1.0545653,-0.0026791,-1.0518862,-0.0440006
 ,0.,0.\PG=CS [SG(H2O1)]\\@
 The archive entry for this job was punched.


 If your ship doesn't come in, swim out to it!
                          -- Jonathan Winters
 Job cpu time:       0 days  0 hours  0 minutes  3.3 seconds.
 Elapsed time:       0 days  0 hours  0 minutes  1.0 seconds.
 File lengths (MBytes):  RWF=      6 Int=      0 D2E=      0 Chk=      1 Scr=      1
 Normal termination of Gaussian 16 at Wed Feb  8 15:06:51 2023.
