 Entering Gaussian System, Link 0=/opt/cluster/programs/g16-c.01/g16/g16
 Input=/scratch/boittier/jobs/tmp.7311866/gaussian_38_water_hf_adz2.com
 Output=/scratch/boittier/jobs/tmp.7311866/gaussian_38_water_hf_adz2.out
 Initial command:
 /opt/cluster/programs/g16-c.01/g16/l1.exe "/scratch/boittier/jobs/tmp.7311866/Gau-158301.inp" -scrdir="/scratch/boittier/jobs/tmp.7311866/"
 Entering Link 1 = /opt/cluster/programs/g16-c.01/g16/l1.exe PID=    158303.
  
 Copyright (c) 1988-2019, Gaussian, Inc.  All Rights Reserved.
  
 This is part of the Gaussian(R) 16 program.  It is based on
 the Gaussian(R) 09 system (copyright 2009, Gaussian, Inc.),
 the Gaussian(R) 03 system (copyright 2003, Gaussian, Inc.),
 the Gaussian(R) 98 system (copyright 1998, Gaussian, Inc.),
 the Gaussian(R) 94 system (copyright 1995, Gaussian, Inc.),
 the Gaussian 92(TM) system (copyright 1992, Gaussian, Inc.),
 the Gaussian 90(TM) system (copyright 1990, Gaussian, Inc.),
 the Gaussian 88(TM) system (copyright 1988, Gaussian, Inc.),
 the Gaussian 86(TM) system (copyright 1986, Carnegie Mellon
 University), and the Gaussian 82(TM) system (copyright 1983,
 Carnegie Mellon University). Gaussian is a federally registered
 trademark of Gaussian, Inc.
  
 This software contains proprietary and confidential information,
 including trade secrets, belonging to Gaussian, Inc.
  
 This software is provided under written license and may be
 used, copied, transmitted, or stored only in accord with that
 written license.
  
 The following legend is applicable only to US Government
 contracts under FAR:
  
                    RESTRICTED RIGHTS LEGEND
  
 Use, reproduction and disclosure by the US Government is
 subject to restrictions as set forth in subparagraphs (a)
 and (c) of the Commercial Computer Software - Restricted
 Rights clause in FAR 52.227-19.
  
 Gaussian, Inc.
 340 Quinnipiac St., Bldg. 40, Wallingford CT 06492
  
  
 ---------------------------------------------------------------
 Warning -- This program may not be used in any manner that
 competes with the business of Gaussian, Inc. or will provide
 assistance to any competitor of Gaussian, Inc.  The licensee
 of this program is prohibited from giving any competitor of
 Gaussian, Inc. access to this program.  By using this program,
 the user acknowledges that Gaussian, Inc. is engaged in the
 business of creating and licensing software in the field of
 computational chemistry and represents and warrants to the
 licensee that it is not a competitor of Gaussian, Inc. and that
 it will not use this program in any manner prohibited above.
 ---------------------------------------------------------------
  

 Cite this work as:
 Gaussian 16, Revision C.01,
 M. J. Frisch, G. W. Trucks, H. B. Schlegel, G. E. Scuseria, 
 M. A. Robb, J. R. Cheeseman, G. Scalmani, V. Barone, 
 G. A. Petersson, H. Nakatsuji, X. Li, M. Caricato, A. V. Marenich, 
 J. Bloino, B. G. Janesko, R. Gomperts, B. Mennucci, H. P. Hratchian, 
 J. V. Ortiz, A. F. Izmaylov, J. L. Sonnenberg, D. Williams-Young, 
 F. Ding, F. Lipparini, F. Egidi, J. Goings, B. Peng, A. Petrone, 
 T. Henderson, D. Ranasinghe, V. G. Zakrzewski, J. Gao, N. Rega, 
 G. Zheng, W. Liang, M. Hada, M. Ehara, K. Toyota, R. Fukuda, 
 J. Hasegawa, M. Ishida, T. Nakajima, Y. Honda, O. Kitao, H. Nakai, 
 T. Vreven, K. Throssell, J. A. Montgomery, Jr., J. E. Peralta, 
 F. Ogliaro, M. J. Bearpark, J. J. Heyd, E. N. Brothers, K. N. Kudin, 
 V. N. Staroverov, T. A. Keith, R. Kobayashi, J. Normand, 
 K. Raghavachari, A. P. Rendell, J. C. Burant, S. S. Iyengar, 
 J. Tomasi, M. Cossi, J. M. Millam, M. Klene, C. Adamo, R. Cammi, 
 J. W. Ochterski, R. L. Martin, K. Morokuma, O. Farkas, 
 J. B. Foresman, and D. J. Fox, Gaussian, Inc., Wallingford CT, 2019.
 
 ******************************************
 Gaussian 16:  ES64L-G16RevC.01  3-Jul-2019
                20-Feb-2023 
 ******************************************
 %nproc=4
 Will use up to    4 processors via shared memory.
 %mem=5760MB
 %chk=gaussian_38_water_hf_adz2.chk
 -----------------------------------
 #P HF/aug-cc-pVDZ scf(maxcycle=200)
 -----------------------------------
 1/38=1,172=1/1;
 2/12=2,17=6,18=5,40=1/2;
 3/5=16,7=10,11=9,25=1,30=1/1,2,3;
 4//1;
 5/5=2,7=200,38=5/2;
 6/7=2,8=2,9=2,10=2,28=1/1;
 99/5=1,9=1/99;
 Leave Link    1 at Mon Feb 20 10:15:04 2023, MaxMem=   754974720 cpu:               0.1 elap:               0.0
 (Enter /opt/cluster/programs/g16-c.01/g16/l101.exe)
 --------------
 Gaussian input
 --------------
 Symbolic Z-matrix:
 Charge =  0 Multiplicity = 1
 O                     0.        0.11751   0. 
 H                     0.71834  -0.43951   0. 
 H                    -0.89067  -0.23799   0. 
 
 ITRead=  0  0  0
 MicOpt= -1 -1 -1
 NAtoms=      3 NQM=        3 NQMF=       0 NMMI=      0 NMMIF=      0
                NMic=       0 NMicF=      0.
                    Isotopes and Nuclear Properties:
 (Nuclear quadrupole moments (NQMom) in fm**2, nuclear magnetic moments (NMagM)
  in nuclear magnetons)

  Atom         1           2           3
 IAtWgt=          16           1           1
 AtmWgt=  15.9949146   1.0078250   1.0078250
 NucSpn=           0           1           1
 AtZEff=  -0.0000000  -0.0000000  -0.0000000
 NQMom=    0.0000000   0.0000000   0.0000000
 NMagM=    0.0000000   2.7928460   2.7928460
 AtZNuc=   8.0000000   1.0000000   1.0000000
 Leave Link  101 at Mon Feb 20 10:15:05 2023, MaxMem=   754974720 cpu:               0.6 elap:               0.2
 (Enter /opt/cluster/programs/g16-c.01/g16/l202.exe)
                          Input orientation:                          
 ---------------------------------------------------------------------
 Center     Atomic      Atomic             Coordinates (Angstroms)
 Number     Number       Type             X           Y           Z
 ---------------------------------------------------------------------
      1          8           0        0.000000    0.117510    0.000000
      2          1           0        0.718337   -0.439511    0.000000
      3          1           0       -0.890673   -0.237993    0.000000
 ---------------------------------------------------------------------
                    Distance matrix (angstroms):
                    1          2          3
     1  O    0.000000
     2  H    0.909000   0.000000
     3  H    0.959000   1.621581   0.000000
 Stoichiometry    H2O
 Framework group  CS[SG(H2O)]
 Deg. of freedom     3
 Full point group                 CS      NOp   2
 Largest Abelian subgroup         CS      NOp   2
 Largest concise Abelian subgroup C1      NOp   1
                         Standard orientation:                         
 ---------------------------------------------------------------------
 Center     Atomic      Atomic             Coordinates (Angstroms)
 Number     Number       Type             X           Y           Z
 ---------------------------------------------------------------------
      1          8           0        0.000000    0.092865    0.000000
      2          1           0        0.809229   -0.321174    0.000000
      3          1           0       -0.809229   -0.421750    0.000000
 ---------------------------------------------------------------------
 Rotational constants (GHZ):        1316.6108120         380.8029449         295.3724585
 Leave Link  202 at Mon Feb 20 10:15:05 2023, MaxMem=   754974720 cpu:               0.1 elap:               0.1
 (Enter /opt/cluster/programs/g16-c.01/g16/l301.exe)
 Standard basis: Aug-CC-pVDZ (5D, 7F)
 Ernie: Thresh=  0.10000D-02 Tol=  0.10000D-05 Strict=F.
 Ernie:  2 primitive shells out of 39 were deleted.
 There are    32 symmetry adapted cartesian basis functions of A'  symmetry.
 There are    11 symmetry adapted cartesian basis functions of A"  symmetry.
 There are    30 symmetry adapted basis functions of A'  symmetry.
 There are    11 symmetry adapted basis functions of A"  symmetry.
    41 basis functions,    65 primitive gaussians,    43 cartesian basis functions
     5 alpha electrons        5 beta electrons
       nuclear repulsion energy         9.3979677554 Hartrees.
 IExCor=    0 DFT=F Ex=HF Corr=None ExCW=0 ScaHFX=  1.000000
 ScaDFX=  1.000000  1.000000  1.000000  1.000000 ScalE2=  1.000000  1.000000
 IRadAn=      5 IRanWt=     -1 IRanGd=            0 ICorTp=0 IEmpDi=  4
 NAtoms=    3 NActive=    3 NUniq=    3 SFac= 1.00D+00 NAtFMM=   60 NAOKFM=F Big=F
 Integral buffers will be    131072 words long.
 Raffenetti 1 integral format.
 Two-electron integral symmetry is turned on.
 Leave Link  301 at Mon Feb 20 10:15:05 2023, MaxMem=   754974720 cpu:               0.2 elap:               0.1
 (Enter /opt/cluster/programs/g16-c.01/g16/l302.exe)
 NPDir=0 NMtPBC=     1 NCelOv=     1 NCel=       1 NClECP=     1 NCelD=      1
         NCelK=      1 NCelE2=     1 NClLst=     1 CellRange=     0.0.
 One-electron integrals computed using PRISM.
 One-electron integral symmetry used in STVInt
 NBasis=    41 RedAO= T EigKep=  2.77D-03  NBF=    30    11
 NBsUse=    41 1.00D-06 EigRej= -1.00D+00 NBFU=    30    11
 Leave Link  302 at Mon Feb 20 10:15:05 2023, MaxMem=   754974720 cpu:               1.0 elap:               0.3
 (Enter /opt/cluster/programs/g16-c.01/g16/l303.exe)
 DipDrv:  MaxL=1.
 Leave Link  303 at Mon Feb 20 10:15:05 2023, MaxMem=   754974720 cpu:               0.2 elap:               0.1
 (Enter /opt/cluster/programs/g16-c.01/g16/l401.exe)
 ExpMin= 2.97D-02 ExpMax= 1.17D+04 ExpMxC= 4.01D+02 IAcc=3 IRadAn=         5 AccDes= 0.00D+00
 Harris functional with IExCor=  205 and IRadAn=       5 diagonalized for initial guess.
 HarFok:  IExCor=  205 AccDes= 0.00D+00 IRadAn=         5 IDoV= 1 UseB2=F ITyADJ=14
 ICtDFT=  3500011 ScaDFX=  1.000000  1.000000  1.000000  1.000000
 FoFCou: FMM=F IPFlag=           0 FMFlag=      100000 FMFlg1=           0
         NFxFlg=           0 DoJE=T BraDBF=F KetDBF=T FulRan=T
         wScrn=  0.000000 ICntrl=       500 IOpCl=  0 I1Cent=   200000004 NGrid=           0
         NMat0=    1 NMatS0=      1 NMatT0=    0 NMatD0=    1 NMtDS0=    0 NMtDT0=    0
 Petite list used in FoFCou.
 Harris En= -76.1222864569164    
 JPrj=0 DoOrth=F DoCkMO=F.
 Initial guess orbital symmetries:
       Occupied  (A') (A') (A') (A') (A")
       Virtual   (A') (A') (A') (A") (A') (A') (A') (A') (A") (A')
                 (A") (A') (A') (A') (A') (A') (A") (A') (A") (A')
                 (A") (A') (A') (A') (A") (A") (A') (A') (A') (A')
                 (A') (A") (A') (A") (A') (A')
 The electronic state of the initial guess is 1-A'.
 Leave Link  401 at Mon Feb 20 10:15:06 2023, MaxMem=   754974720 cpu:               1.4 elap:               0.6
 (Enter /opt/cluster/programs/g16-c.01/g16/l502.exe)
 Keep R1 ints in memory in symmetry-blocked form, NReq=1210696.
 FoFCou: FMM=F IPFlag=           0 FMFlag=           0 FMFlg1=           0
         NFxFlg=           0 DoJE=F BraDBF=F KetDBF=F FulRan=T
         wScrn=  0.000000 ICntrl=       600 IOpCl=  0 I1Cent=           0 NGrid=           0
         NMat0=    1 NMatS0=    861 NMatT0=    0 NMatD0=    1 NMtDS0=    0 NMtDT0=    0
 Petite list used in FoFCou.
 Closed shell SCF:
 Using DIIS extrapolation, IDIIS=  1040.
 NGot=   754974720 LenX=   754771907 LenY=   754769617
 Requested convergence on RMS density matrix=1.00D-08 within 200 cycles.
 Requested convergence on MAX density matrix=1.00D-06.
 Requested convergence on             energy=1.00D-06.
 No special actions if energy rises.

 Cycle   1  Pass 1  IDiag  1:
 E= -75.9541708851422    
 DIIS: error= 5.30D-02 at cycle   1 NSaved=   1.
 NSaved= 1 IEnMin= 1 EnMin= -75.9541708851422     IErMin= 1 ErrMin= 5.30D-02
 ErrMax= 5.30D-02  0.00D+00 EMaxC= 1.00D-01 BMatC= 1.25D-01 BMatP= 1.25D-01
 IDIUse=3 WtCom= 4.70D-01 WtEn= 5.30D-01
 Coeff-Com:  0.100D+01
 Coeff-En:   0.100D+01
 Coeff:      0.100D+01
 Gap=     0.454 Goal=   None    Shift=    0.000
 GapD=    0.454 DampG=2.000 DampE=0.500 DampFc=1.0000 IDamp=-1.
 RMSDP=6.46D-03 MaxDP=1.23D-01              OVMax= 1.22D-01

 Cycle   2  Pass 1  IDiag  1:
 E= -76.0030397694700     Delta-E=       -0.048868884328 Rises=F Damp=F
 DIIS: error= 3.93D-02 at cycle   2 NSaved=   2.
 NSaved= 2 IEnMin= 2 EnMin= -76.0030397694700     IErMin= 2 ErrMin= 3.93D-02
 ErrMax= 3.93D-02  0.00D+00 EMaxC= 1.00D-01 BMatC= 4.62D-02 BMatP= 1.25D-01
 IDIUse=3 WtCom= 6.07D-01 WtEn= 3.93D-01
 Coeff-Com:  0.368D+00 0.632D+00
 Coeff-En:   0.190D+00 0.810D+00
 Coeff:      0.298D+00 0.702D+00
 Gap=     0.563 Goal=   None    Shift=    0.000
 RMSDP=2.93D-03 MaxDP=5.50D-02 DE=-4.89D-02 OVMax= 5.92D-02

 Cycle   3  Pass 1  IDiag  1:
 E= -76.0343723936445     Delta-E=       -0.031332624174 Rises=F Damp=F
 DIIS: error= 5.07D-03 at cycle   3 NSaved=   3.
 NSaved= 3 IEnMin= 3 EnMin= -76.0343723936445     IErMin= 3 ErrMin= 5.07D-03
 ErrMax= 5.07D-03  0.00D+00 EMaxC= 1.00D-01 BMatC= 1.23D-03 BMatP= 4.62D-02
 IDIUse=3 WtCom= 9.49D-01 WtEn= 5.07D-02
 Coeff-Com: -0.361D-01 0.970D-01 0.939D+00
 Coeff-En:   0.000D+00 0.000D+00 0.100D+01
 Coeff:     -0.342D-01 0.921D-01 0.942D+00
 Gap=     0.543 Goal=   None    Shift=    0.000
 RMSDP=4.80D-04 MaxDP=8.32D-03 DE=-3.13D-02 OVMax= 8.68D-03

 Cycle   4  Pass 1  IDiag  1:
 E= -76.0352725429602     Delta-E=       -0.000900149316 Rises=F Damp=F
 DIIS: error= 5.02D-04 at cycle   4 NSaved=   4.
 NSaved= 4 IEnMin= 4 EnMin= -76.0352725429602     IErMin= 4 ErrMin= 5.02D-04
 ErrMax= 5.02D-04  0.00D+00 EMaxC= 1.00D-01 BMatC= 6.25D-06 BMatP= 1.23D-03
 IDIUse=3 WtCom= 9.95D-01 WtEn= 5.02D-03
 Coeff-Com:  0.842D-02-0.430D-01-0.317D+00 0.135D+01
 Coeff-En:   0.000D+00 0.000D+00 0.000D+00 0.100D+01
 Coeff:      0.838D-02-0.428D-01-0.316D+00 0.135D+01
 Gap=     0.543 Goal=   None    Shift=    0.000
 RMSDP=1.09D-04 MaxDP=1.00D-03 DE=-9.00D-04 OVMax= 2.27D-03

 Cycle   5  Pass 1  IDiag  1:
 E= -76.0352877625107     Delta-E=       -0.000015219551 Rises=F Damp=F
 DIIS: error= 1.35D-04 at cycle   5 NSaved=   5.
 NSaved= 5 IEnMin= 5 EnMin= -76.0352877625107     IErMin= 5 ErrMin= 1.35D-04
 ErrMax= 1.35D-04  0.00D+00 EMaxC= 1.00D-01 BMatC= 2.71D-07 BMatP= 6.25D-06
 IDIUse=3 WtCom= 9.99D-01 WtEn= 1.35D-03
 Coeff-Com: -0.162D-03 0.380D-02 0.251D-01-0.291D+00 0.126D+01
 Coeff-En:   0.000D+00 0.000D+00 0.000D+00 0.000D+00 0.100D+01
 Coeff:     -0.162D-03 0.380D-02 0.251D-01-0.291D+00 0.126D+01
 Gap=     0.544 Goal=   None    Shift=    0.000
 RMSDP=2.68D-05 MaxDP=3.02D-04 DE=-1.52D-05 OVMax= 6.28D-04

 Cycle   6  Pass 1  IDiag  1:
 E= -76.0352886129435     Delta-E=       -0.000000850433 Rises=F Damp=F
 DIIS: error= 2.61D-05 at cycle   6 NSaved=   6.
 NSaved= 6 IEnMin= 6 EnMin= -76.0352886129435     IErMin= 6 ErrMin= 2.61D-05
 ErrMax= 2.61D-05  0.00D+00 EMaxC= 1.00D-01 BMatC= 1.05D-08 BMatP= 2.71D-07
 IDIUse=1 WtCom= 1.00D+00 WtEn= 0.00D+00
 Coeff-Com: -0.342D-03 0.138D-02 0.107D-01-0.214D-01-0.204D+00 0.121D+01
 Coeff:     -0.342D-03 0.138D-02 0.107D-01-0.214D-01-0.204D+00 0.121D+01
 Gap=     0.544 Goal=   None    Shift=    0.000
 RMSDP=4.66D-06 MaxDP=7.35D-05 DE=-8.50D-07 OVMax= 1.36D-04

 Cycle   7  Pass 1  IDiag  1:
 E= -76.0352886472725     Delta-E=       -0.000000034329 Rises=F Damp=F
 DIIS: error= 6.75D-06 at cycle   7 NSaved=   7.
 NSaved= 7 IEnMin= 7 EnMin= -76.0352886472725     IErMin= 7 ErrMin= 6.75D-06
 ErrMax= 6.75D-06  0.00D+00 EMaxC= 1.00D-01 BMatC= 5.79D-10 BMatP= 1.05D-08
 IDIUse=1 WtCom= 1.00D+00 WtEn= 0.00D+00
 Coeff-Com:  0.136D-03-0.715D-03-0.547D-02 0.246D-01 0.900D-02-0.427D+00
 Coeff-Com:  0.140D+01
 Coeff:      0.136D-03-0.715D-03-0.547D-02 0.246D-01 0.900D-02-0.427D+00
 Coeff:      0.140D+01
 Gap=     0.544 Goal=   None    Shift=    0.000
 RMSDP=9.64D-07 MaxDP=1.98D-05 DE=-3.43D-08 OVMax= 2.96D-05

 Cycle   8  Pass 1  IDiag  1:
 E= -76.0352886489119     Delta-E=       -0.000000001639 Rises=F Damp=F
 DIIS: error= 7.90D-07 at cycle   8 NSaved=   8.
 NSaved= 8 IEnMin= 8 EnMin= -76.0352886489119     IErMin= 8 ErrMin= 7.90D-07
 ErrMax= 7.90D-07  0.00D+00 EMaxC= 1.00D-01 BMatC= 1.53D-11 BMatP= 5.79D-10
 IDIUse=1 WtCom= 1.00D+00 WtEn= 0.00D+00
 Coeff-Com: -0.158D-04 0.967D-04 0.791D-03-0.482D-02 0.609D-02 0.548D-01
 Coeff-Com: -0.331D+00 0.127D+01
 Coeff:     -0.158D-04 0.967D-04 0.791D-03-0.482D-02 0.609D-02 0.548D-01
 Coeff:     -0.331D+00 0.127D+01
 Gap=     0.544 Goal=   None    Shift=    0.000
 RMSDP=1.71D-07 MaxDP=2.58D-06 DE=-1.64D-09 OVMax= 3.64D-06

 Cycle   9  Pass 1  IDiag  1:
 E= -76.0352886489479     Delta-E=       -0.000000000036 Rises=F Damp=F
 DIIS: error= 8.57D-08 at cycle   9 NSaved=   9.
 NSaved= 9 IEnMin= 9 EnMin= -76.0352886489479     IErMin= 9 ErrMin= 8.57D-08
 ErrMax= 8.57D-08  0.00D+00 EMaxC= 1.00D-01 BMatC= 1.97D-13 BMatP= 1.53D-11
 IDIUse=1 WtCom= 1.00D+00 WtEn= 0.00D+00
 Coeff-Com: -0.359D-05 0.185D-04 0.138D-03-0.543D-03-0.598D-03 0.105D-01
 Coeff-Com: -0.273D-01-0.413D-01 0.106D+01
 Coeff:     -0.359D-05 0.185D-04 0.138D-03-0.543D-03-0.598D-03 0.105D-01
 Coeff:     -0.273D-01-0.413D-01 0.106D+01
 Gap=     0.544 Goal=   None    Shift=    0.000
 RMSDP=2.19D-08 MaxDP=2.61D-07 DE=-3.60D-11 OVMax= 3.57D-07

 Cycle  10  Pass 1  IDiag  1:
 E= -76.0352886489484     Delta-E=       -0.000000000001 Rises=F Damp=F
 DIIS: error= 1.83D-08 at cycle  10 NSaved=  10.
 NSaved=10 IEnMin=10 EnMin= -76.0352886489484     IErMin=10 ErrMin= 1.83D-08
 ErrMax= 1.83D-08  0.00D+00 EMaxC= 1.00D-01 BMatC= 8.41D-15 BMatP= 1.97D-13
 IDIUse=1 WtCom= 1.00D+00 WtEn= 0.00D+00
 Coeff-Com:  0.889D-06-0.499D-05-0.388D-04 0.199D-03-0.342D-04-0.297D-02
 Coeff-Com:  0.126D-01-0.245D-01-0.207D+00 0.122D+01
 Coeff:      0.889D-06-0.499D-05-0.388D-04 0.199D-03-0.342D-04-0.297D-02
 Coeff:      0.126D-01-0.245D-01-0.207D+00 0.122D+01
 Gap=     0.544 Goal=   None    Shift=    0.000
 RMSDP=4.27D-09 MaxDP=4.15D-08 DE=-5.12D-13 OVMax= 6.64D-08

 SCF Done:  E(RHF) =  -76.0352886489     A.U. after   10 cycles
            NFock= 10  Conv=0.43D-08     -V/T= 2.0004
 KE= 7.600534153685D+01 PE=-1.993690300632D+02 EE= 3.793043212195D+01
 Leave Link  502 at Mon Feb 20 10:15:06 2023, MaxMem=   754974720 cpu:               0.6 elap:               0.2
 (Enter /opt/cluster/programs/g16-c.01/g16/l601.exe)
 Copying SCF densities to generalized density rwf, IOpCl= 0 IROHF=0.

 **********************************************************************

            Population analysis using the SCF Density.

 **********************************************************************

 Orbital symmetries:
       Occupied  (A') (A') (A') (A') (A")
       Virtual   (A') (A') (A') (A") (A') (A') (A') (A') (A") (A')
                 (A") (A') (A') (A') (A') (A') (A") (A') (A") (A')
                 (A') (A") (A') (A') (A") (A") (A') (A') (A') (A')
                 (A') (A") (A') (A") (A') (A')
 The electronic state is 1-A'.
 Alpha  occ. eigenvalues --  -20.56549  -1.35849  -0.76154  -0.55900  -0.50689
 Alpha virt. eigenvalues --    0.03690   0.05668   0.17522   0.19355   0.22040
 Alpha virt. eigenvalues --    0.22577   0.30492   0.31579   0.37902   0.44065
 Alpha virt. eigenvalues --    0.46288   0.52592   0.65010   0.66168   0.86329
 Alpha virt. eigenvalues --    0.88889   1.07698   1.08302   1.15102   1.42792
 Alpha virt. eigenvalues --    1.48338   1.50786   1.58447   1.99791   2.05852
 Alpha virt. eigenvalues --    2.10244   2.45499   2.49742   2.68632   2.79364
 Alpha virt. eigenvalues --    2.84934   3.65658   3.66584   3.71604   4.21291
 Alpha virt. eigenvalues --    4.31189
          Condensed to atoms (all electrons):
               1          2          3
     1  O    7.580982   0.362831   0.348348
     2  H    0.362831   0.583128  -0.061057
     3  H    0.348348  -0.061057   0.535645
 Mulliken charges:
               1
     1  O   -0.292161
     2  H    0.115097
     3  H    0.177064
 Sum of Mulliken charges =   0.00000
 Mulliken charges with hydrogens summed into heavy atoms:
               1
     1  O    0.000000
 Electronic spatial extent (au):  <R**2>=             19.2759
 Charge=             -0.0000 electrons
 Dipole moment (field-independent basis, Debye):
    X=              0.0127    Y=             -1.7017    Z=              0.0000  Tot=              1.7017
 Quadrupole moment (field-independent basis, Debye-Ang):
   XX=             -3.6919   YY=             -6.6963   ZZ=             -7.5666
   XY=              0.2072   XZ=              0.0000   YZ=              0.0000
 Traceless Quadrupole moment (field-independent basis, Debye-Ang):
   XX=              2.2930   YY=             -0.7113   ZZ=             -1.5817
   XY=              0.2072   XZ=              0.0000   YZ=              0.0000
 Octapole moment (field-independent basis, Debye-Ang**2):
  XXX=              0.0458  YYY=             -0.9609  ZZZ=              0.0000  XYY=             -0.1018
  XXY=             -1.2858  XXZ=              0.0000  XZZ=              0.0307  YZZ=             -0.2700
  YYZ=              0.0000  XYZ=              0.0000
 Hexadecapole moment (field-independent basis, Debye-Ang**3):
 XXXX=             -5.3127 YYYY=             -7.1677 ZZZZ=             -6.8655 XXXY=              0.0716
 XXXZ=              0.0000 YYYX=             -0.0109 YYYZ=              0.0000 ZZZX=              0.0000
 ZZZY=              0.0000 XXYY=             -2.0391 XXZZ=             -2.4675 YYZZ=             -2.3624
 XXYZ=              0.0000 YYXZ=              0.0000 ZZXY=             -0.0335
 N-N= 9.397967755425D+00 E-N=-1.993690298265D+02  KE= 7.600534153685D+01
 Symmetry A'   KE= 7.158053251983D+01
 Symmetry A"   KE= 4.424809017026D+00
 No NMR shielding tensors so no spin-rotation constants.
 Leave Link  601 at Mon Feb 20 10:15:06 2023, MaxMem=   754974720 cpu:               0.7 elap:               0.2
 (Enter /opt/cluster/programs/g16-c.01/g16/l9999.exe)
 Unable to Open any file for archive entry.
 1\1\GINC-NODE106\SP\RHF\Aug-CC-pVDZ\H2O1\BOITTIER\20-Feb-2023\0\\#P HF
 /aug-cc-pVDZ scf(maxcycle=200)\\Gaussian input\\0,1\O,0,0.,0.11751,0.\
 H,0,0.7183372325,-0.4395112028,0.\H,0,-0.8906732822,-0.2379926082,0.\\
 Version=ES64L-G16RevC.01\State=1-A'\HF=-76.0352886\RMSD=4.273e-09\Dipo
 le=-0.119333,-0.6587832,0.\Quadrupole=1.6840763,-0.5081294,-1.1759469,
 -0.263853,0.,0.\PG=CS [SG(H2O1)]\\@
 The archive entry for this job was punched.


 WERE I TO AWAIT PERFECTION, MY BOOK WOULD NEVER BE FINISHED.
                                    -- HISTORY OF CHINESE WRITING

                                       TAI T'UNG, 13TH CENTURY
 Job cpu time:       0 days  0 hours  0 minutes  5.1 seconds.
 Elapsed time:       0 days  0 hours  0 minutes  1.8 seconds.
 File lengths (MBytes):  RWF=      6 Int=      0 D2E=      0 Chk=      1 Scr=      1
 Normal termination of Gaussian 16 at Mon Feb 20 10:15:06 2023.
