 Entering Gaussian System, Link 0=/opt/cluster/programs/g16-c.01/g16/g16
 Input=/scratch/boittier/jobs/tmp.7261839/gaussian_161_water_ccsdt_atz.com
 Output=/scratch/boittier/jobs/tmp.7261839/gaussian_161_water_ccsdt_atz.out
 Initial command:
 /opt/cluster/programs/g16-c.01/g16/l1.exe "/scratch/boittier/jobs/tmp.7261839/Gau-171807.inp" -scrdir="/scratch/boittier/jobs/tmp.7261839/"
 Entering Link 1 = /opt/cluster/programs/g16-c.01/g16/l1.exe PID=    171808.
  
 Copyright (c) 1988-2019, Gaussian, Inc.  All Rights Reserved.
  
 This is part of the Gaussian(R) 16 program.  It is based on
 the Gaussian(R) 09 system (copyright 2009, Gaussian, Inc.),
 the Gaussian(R) 03 system (copyright 2003, Gaussian, Inc.),
 the Gaussian(R) 98 system (copyright 1998, Gaussian, Inc.),
 the Gaussian(R) 94 system (copyright 1995, Gaussian, Inc.),
 the Gaussian 92(TM) system (copyright 1992, Gaussian, Inc.),
 the Gaussian 90(TM) system (copyright 1990, Gaussian, Inc.),
 the Gaussian 88(TM) system (copyright 1988, Gaussian, Inc.),
 the Gaussian 86(TM) system (copyright 1986, Carnegie Mellon
 University), and the Gaussian 82(TM) system (copyright 1983,
 Carnegie Mellon University). Gaussian is a federally registered
 trademark of Gaussian, Inc.
  
 This software contains proprietary and confidential information,
 including trade secrets, belonging to Gaussian, Inc.
  
 This software is provided under written license and may be
 used, copied, transmitted, or stored only in accord with that
 written license.
  
 The following legend is applicable only to US Government
 contracts under FAR:
  
                    RESTRICTED RIGHTS LEGEND
  
 Use, reproduction and disclosure by the US Government is
 subject to restrictions as set forth in subparagraphs (a)
 and (c) of the Commercial Computer Software - Restricted
 Rights clause in FAR 52.227-19.
  
 Gaussian, Inc.
 340 Quinnipiac St., Bldg. 40, Wallingford CT 06492
  
  
 ---------------------------------------------------------------
 Warning -- This program may not be used in any manner that
 competes with the business of Gaussian, Inc. or will provide
 assistance to any competitor of Gaussian, Inc.  The licensee
 of this program is prohibited from giving any competitor of
 Gaussian, Inc. access to this program.  By using this program,
 the user acknowledges that Gaussian, Inc. is engaged in the
 business of creating and licensing software in the field of
 computational chemistry and represents and warrants to the
 licensee that it is not a competitor of Gaussian, Inc. and that
 it will not use this program in any manner prohibited above.
 ---------------------------------------------------------------
  

 Cite this work as:
 Gaussian 16, Revision C.01,
 M. J. Frisch, G. W. Trucks, H. B. Schlegel, G. E. Scuseria, 
 M. A. Robb, J. R. Cheeseman, G. Scalmani, V. Barone, 
 G. A. Petersson, H. Nakatsuji, X. Li, M. Caricato, A. V. Marenich, 
 J. Bloino, B. G. Janesko, R. Gomperts, B. Mennucci, H. P. Hratchian, 
 J. V. Ortiz, A. F. Izmaylov, J. L. Sonnenberg, D. Williams-Young, 
 F. Ding, F. Lipparini, F. Egidi, J. Goings, B. Peng, A. Petrone, 
 T. Henderson, D. Ranasinghe, V. G. Zakrzewski, J. Gao, N. Rega, 
 G. Zheng, W. Liang, M. Hada, M. Ehara, K. Toyota, R. Fukuda, 
 J. Hasegawa, M. Ishida, T. Nakajima, Y. Honda, O. Kitao, H. Nakai, 
 T. Vreven, K. Throssell, J. A. Montgomery, Jr., J. E. Peralta, 
 F. Ogliaro, M. J. Bearpark, J. J. Heyd, E. N. Brothers, K. N. Kudin, 
 V. N. Staroverov, T. A. Keith, R. Kobayashi, J. Normand, 
 K. Raghavachari, A. P. Rendell, J. C. Burant, S. S. Iyengar, 
 J. Tomasi, M. Cossi, J. M. Millam, M. Klene, C. Adamo, R. Cammi, 
 J. W. Ochterski, R. L. Martin, K. Morokuma, O. Farkas, 
 J. B. Foresman, and D. J. Fox, Gaussian, Inc., Wallingford CT, 2019.
 
 ******************************************
 Gaussian 16:  ES64L-G16RevC.01  3-Jul-2019
                 8-Feb-2023 
 ******************************************
 %nproc=4
 Will use up to    4 processors via shared memory.
 %mem=5760MB
 %chk=gaussian_161_water_ccsdt_atz.chk
 ----------------------------------------
 #P CCSD(T)/aug-cc-pVTZ scf(maxcycle=200)
 ----------------------------------------
 1/38=1,172=1/1;
 2/12=2,17=6,18=5,40=1/2;
 3/5=16,6=1,7=10,11=9,25=1,30=1/1,2,3;
 4//1;
 5/5=2,7=200,38=5/2;
 8/6=4,9=120000,10=1/1,4;
 9/5=7,14=2/13;
 6/7=2,8=2,9=2,10=2/1;
 99/5=1,9=1/99;
 Leave Link    1 at Wed Feb  8 13:57:15 2023, MaxMem=   754974720 cpu:               0.1 elap:               0.1
 (Enter /opt/cluster/programs/g16-c.01/g16/l101.exe)
 --------------
 Gaussian input
 --------------
 Symbolic Z-matrix:
 Charge =  0 Multiplicity = 1
 O                     0.        0.11751   0. 
 H                     0.79736  -0.50079   0. 
 H                    -0.56774  -0.71661   0. 
 
 ITRead=  0  0  0
 MicOpt= -1 -1 -1
 NAtoms=      3 NQM=        3 NQMF=       0 NMMI=      0 NMMIF=      0
                NMic=       0 NMicF=      0.
                    Isotopes and Nuclear Properties:
 (Nuclear quadrupole moments (NQMom) in fm**2, nuclear magnetic moments (NMagM)
  in nuclear magnetons)

  Atom         1           2           3
 IAtWgt=          16           1           1
 AtmWgt=  15.9949146   1.0078250   1.0078250
 NucSpn=           0           1           1
 AtZEff=  -0.0000000  -0.0000000  -0.0000000
 NQMom=    0.0000000   0.0000000   0.0000000
 NMagM=    0.0000000   2.7928460   2.7928460
 AtZNuc=   8.0000000   1.0000000   1.0000000
 Leave Link  101 at Wed Feb  8 13:57:15 2023, MaxMem=   754974720 cpu:               0.3 elap:               0.2
 (Enter /opt/cluster/programs/g16-c.01/g16/l202.exe)
                          Input orientation:                          
 ---------------------------------------------------------------------
 Center     Atomic      Atomic             Coordinates (Angstroms)
 Number     Number       Type             X           Y           Z
 ---------------------------------------------------------------------
      1          8           0        0.000000    0.117510    0.000000
      2          1           0        0.797362   -0.500790    0.000000
      3          1           0       -0.567741   -0.716607    0.000000
 ---------------------------------------------------------------------
                    Distance matrix (angstroms):
                    1          2          3
     1  O    0.000000
     2  H    1.009000   0.000000
     3  H    1.009000   1.382058   0.000000
 Stoichiometry    H2O
 Framework group  C2V[C2(O),SGV(H2)]
 Deg. of freedom     2
 Full point group                 C2V     NOp   4
 Largest Abelian subgroup         C2V     NOp   4
 Largest concise Abelian subgroup C2      NOp   2
                         Standard orientation:                         
 ---------------------------------------------------------------------
 Center     Atomic      Atomic             Coordinates (Angstroms)
 Number     Number       Type             X           Y           Z
 ---------------------------------------------------------------------
      1          8           0        0.000000   -0.000000    0.147046
      2          1           0        0.000000    0.691029   -0.588182
      3          1           0       -0.000000   -0.691029   -0.588182
 ---------------------------------------------------------------------
 Rotational constants (GHZ):         525.0608536         522.2801377         261.8334021
 Leave Link  202 at Wed Feb  8 13:57:15 2023, MaxMem=   754974720 cpu:               0.1 elap:               0.1
 (Enter /opt/cluster/programs/g16-c.01/g16/l301.exe)
 Standard basis: Aug-CC-pVTZ (5D, 7F)
 Ernie: Thresh=  0.10000D-02 Tol=  0.10000D-05 Strict=F.
 Ernie:  3 primitive shells out of 52 were deleted.
 There are    42 symmetry adapted cartesian basis functions of A1  symmetry.
 There are    12 symmetry adapted cartesian basis functions of A2  symmetry.
 There are    20 symmetry adapted cartesian basis functions of B1  symmetry.
 There are    31 symmetry adapted cartesian basis functions of B2  symmetry.
 There are    35 symmetry adapted basis functions of A1  symmetry.
 There are    12 symmetry adapted basis functions of A2  symmetry.
 There are    18 symmetry adapted basis functions of B1  symmetry.
 There are    27 symmetry adapted basis functions of B2  symmetry.
    92 basis functions,   126 primitive gaussians,   105 cartesian basis functions
     5 alpha electrons        5 beta electrons
       nuclear repulsion energy         8.7742043489 Hartrees.
 IExCor=    0 DFT=F Ex=HF Corr=None ExCW=0 ScaHFX=  1.000000
 ScaDFX=  1.000000  1.000000  1.000000  1.000000 ScalE2=  1.000000  1.000000
 IRadAn=      5 IRanWt=     -1 IRanGd=            0 ICorTp=0 IEmpDi=  4
 NAtoms=    3 NActive=    3 NUniq=    2 SFac= 2.25D+00 NAtFMM=   60 NAOKFM=F Big=F
 Integral buffers will be    131072 words long.
 Raffenetti 1 integral format.
 Two-electron integral symmetry is turned on.
 Leave Link  301 at Wed Feb  8 13:57:15 2023, MaxMem=   754974720 cpu:               0.3 elap:               0.1
 (Enter /opt/cluster/programs/g16-c.01/g16/l302.exe)
 NPDir=0 NMtPBC=     1 NCelOv=     1 NCel=       1 NClECP=     1 NCelD=      1
         NCelK=      1 NCelE2=     1 NClLst=     1 CellRange=     0.0.
 One-electron integrals computed using PRISM.
 One-electron integral symmetry used in STVInt
 NBasis=    92 RedAO= T EigKep=  4.40D-04  NBF=    35    12    18    27
 NBsUse=    92 1.00D-06 EigRej= -1.00D+00 NBFU=    35    12    18    27
 Leave Link  302 at Wed Feb  8 13:57:18 2023, MaxMem=   754974720 cpu:               5.8 elap:               2.9
 (Enter /opt/cluster/programs/g16-c.01/g16/l303.exe)
 DipDrv:  MaxL=1.
 Leave Link  303 at Wed Feb  8 13:57:19 2023, MaxMem=   754974720 cpu:               0.6 elap:               0.3
 (Enter /opt/cluster/programs/g16-c.01/g16/l401.exe)
 ExpMin= 2.53D-02 ExpMax= 1.53D+04 ExpMxC= 5.22D+02 IAcc=3 IRadAn=         5 AccDes= 0.00D+00
 Harris functional with IExCor=  205 and IRadAn=       5 diagonalized for initial guess.
 HarFok:  IExCor=  205 AccDes= 0.00D+00 IRadAn=         5 IDoV= 1 UseB2=F ITyADJ=14
 ICtDFT=  3500011 ScaDFX=  1.000000  1.000000  1.000000  1.000000
 FoFCou: FMM=F IPFlag=           0 FMFlag=      100000 FMFlg1=           0
         NFxFlg=           0 DoJE=T BraDBF=F KetDBF=T FulRan=T
         wScrn=  0.000000 ICntrl=       500 IOpCl=  0 I1Cent=   200000004 NGrid=           0
         NMat0=    1 NMatS0=      1 NMatT0=    0 NMatD0=    1 NMtDS0=    0 NMtDT0=    0
 Petite list used in FoFCou.
 Harris En= -76.1383375143994    
 JPrj=0 DoOrth=F DoCkMO=F.
 Initial guess orbital symmetries:
       Occupied  (A1) (A1) (B2) (A1) (B1)
       Virtual   (A1) (B2) (A1) (B1) (B2) (A1) (B2) (A1) (A2) (B1)
                 (A1) (A1) (B2) (B2) (B2) (A1) (A1) (B1) (A2) (B1)
                 (A1) (A1) (B2) (B1) (A1) (A2) (B2) (A1) (B2) (B1)
                 (B2) (A2) (A1) (B2) (A1) (B1) (A2) (A1) (B2) (B2)
                 (A1) (B1) (A2) (A1) (A1) (B1) (B2) (A1) (B2) (B1)
                 (B2) (A1) (A2) (A1) (B2) (B1) (A1) (B1) (A2) (B2)
                 (A2) (A1) (B1) (B2) (A1) (B2) (A1) (A2) (B2) (B1)
                 (A1) (B2) (A1) (B2) (B1) (B2) (A1) (B1) (A2) (B1)
                 (A2) (A1) (A1) (A1) (B2) (B2) (A1)
 The electronic state of the initial guess is 1-A1.
 Leave Link  401 at Wed Feb  8 13:57:20 2023, MaxMem=   754974720 cpu:               3.1 elap:               1.6
 (Enter /opt/cluster/programs/g16-c.01/g16/l502.exe)
 Keep R1 ints in memory in symmetry-blocked form, NReq=11496777.
 FoFCou: FMM=F IPFlag=           0 FMFlag=           0 FMFlg1=           0
         NFxFlg=           0 DoJE=F BraDBF=F KetDBF=F FulRan=T
         wScrn=  0.000000 ICntrl=       600 IOpCl=  0 I1Cent=           0 NGrid=           0
         NMat0=    1 NMatS0=   4278 NMatT0=    0 NMatD0=    1 NMtDS0=    0 NMtDT0=    0
 Petite list used in FoFCou.
 Closed shell SCF:
 Using DIIS extrapolation, IDIIS=  1040.
 NGot=   754974720 LenX=   752607631 LenY=   752596165
 Requested convergence on RMS density matrix=1.00D-08 within 200 cycles.
 Requested convergence on MAX density matrix=1.00D-06.
 Requested convergence on             energy=1.00D-06.
 No special actions if energy rises.

 Cycle   1  Pass 1  IDiag  1:
 E= -75.9593434111309    
 DIIS: error= 5.05D-02 at cycle   1 NSaved=   1.
 NSaved= 1 IEnMin= 1 EnMin= -75.9593434111309     IErMin= 1 ErrMin= 5.05D-02
 ErrMax= 5.05D-02  0.00D+00 EMaxC= 1.00D-01 BMatC= 1.91D-01 BMatP= 1.91D-01
 IDIUse=3 WtCom= 4.95D-01 WtEn= 5.05D-01
 Coeff-Com:  0.100D+01
 Coeff-En:   0.100D+01
 Coeff:      0.100D+01
 Gap=     0.458 Goal=   None    Shift=    0.000
 GapD=    0.458 DampG=2.000 DampE=0.500 DampFc=1.0000 IDamp=-1.
 RMSDP=2.12D-03 MaxDP=4.59D-02              OVMax= 1.32D-01

 Cycle   2  Pass 1  IDiag  1:
 E= -76.0044685610537     Delta-E=       -0.045125149923 Rises=F Damp=F
 DIIS: error= 3.68D-02 at cycle   2 NSaved=   2.
 NSaved= 2 IEnMin= 2 EnMin= -76.0044685610537     IErMin= 2 ErrMin= 3.68D-02
 ErrMax= 3.68D-02  0.00D+00 EMaxC= 1.00D-01 BMatC= 6.17D-02 BMatP= 1.91D-01
 IDIUse=3 WtCom= 6.32D-01 WtEn= 3.68D-01
 Coeff-Com:  0.335D+00 0.665D+00
 Coeff-En:   0.249D+00 0.751D+00
 Coeff:      0.303D+00 0.697D+00
 Gap=     0.563 Goal=   None    Shift=    0.000
 RMSDP=1.34D-03 MaxDP=3.66D-02 DE=-4.51D-02 OVMax= 6.65D-02

 Cycle   3  Pass 1  IDiag  1:
 E= -76.0422185821540     Delta-E=       -0.037750021100 Rises=F Damp=F
 DIIS: error= 6.82D-03 at cycle   3 NSaved=   3.
 NSaved= 3 IEnMin= 3 EnMin= -76.0422185821540     IErMin= 3 ErrMin= 6.82D-03
 ErrMax= 6.82D-03  0.00D+00 EMaxC= 1.00D-01 BMatC= 2.66D-03 BMatP= 6.17D-02
 IDIUse=3 WtCom= 9.32D-01 WtEn= 6.82D-02
 Coeff-Com: -0.326D-01 0.140D+00 0.893D+00
 Coeff-En:   0.000D+00 0.000D+00 0.100D+01
 Coeff:     -0.303D-01 0.130D+00 0.900D+00
 Gap=     0.536 Goal=   None    Shift=    0.000
 RMSDP=2.19D-04 MaxDP=4.11D-03 DE=-3.78D-02 OVMax= 1.35D-02

 Cycle   4  Pass 1  IDiag  1:
 E= -76.0439685804325     Delta-E=       -0.001749998278 Rises=F Damp=F
 DIIS: error= 7.18D-04 at cycle   4 NSaved=   4.
 NSaved= 4 IEnMin= 4 EnMin= -76.0439685804325     IErMin= 4 ErrMin= 7.18D-04
 ErrMax= 7.18D-04  0.00D+00 EMaxC= 1.00D-01 BMatC= 1.60D-05 BMatP= 2.66D-03
 IDIUse=3 WtCom= 9.93D-01 WtEn= 7.18D-03
 Coeff-Com:  0.819D-02-0.570D-01-0.279D+00 0.133D+01
 Coeff-En:   0.000D+00 0.000D+00 0.000D+00 0.100D+01
 Coeff:      0.813D-02-0.566D-01-0.277D+00 0.132D+01
 Gap=     0.538 Goal=   None    Shift=    0.000
 RMSDP=4.47D-05 MaxDP=8.31D-04 DE=-1.75D-03 OVMax= 2.75D-03

 Cycle   5  Pass 1  IDiag  1:
 E= -76.0440001698649     Delta-E=       -0.000031589432 Rises=F Damp=F
 DIIS: error= 2.12D-04 at cycle   5 NSaved=   5.
 NSaved= 5 IEnMin= 5 EnMin= -76.0440001698649     IErMin= 5 ErrMin= 2.12D-04
 ErrMax= 2.12D-04  0.00D+00 EMaxC= 1.00D-01 BMatC= 8.92D-07 BMatP= 1.60D-05
 IDIUse=3 WtCom= 9.98D-01 WtEn= 2.12D-03
 Coeff-Com:  0.250D-03 0.194D-02 0.944D-02-0.266D+00 0.125D+01
 Coeff-En:   0.000D+00 0.000D+00 0.000D+00 0.000D+00 0.100D+01
 Coeff:      0.249D-03 0.194D-02 0.942D-02-0.265D+00 0.125D+01
 Gap=     0.539 Goal=   None    Shift=    0.000
 RMSDP=1.22D-05 MaxDP=3.04D-04 DE=-3.16D-05 OVMax= 9.32D-04

 Cycle   6  Pass 1  IDiag  1:
 E= -76.0440023897095     Delta-E=       -0.000002219845 Rises=F Damp=F
 DIIS: error= 3.40D-05 at cycle   6 NSaved=   6.
 NSaved= 6 IEnMin= 6 EnMin= -76.0440023897095     IErMin= 6 ErrMin= 3.40D-05
 ErrMax= 3.40D-05  0.00D+00 EMaxC= 1.00D-01 BMatC= 3.10D-08 BMatP= 8.92D-07
 IDIUse=1 WtCom= 1.00D+00 WtEn= 0.00D+00
 Coeff-Com: -0.346D-03 0.166D-02 0.694D-02 0.128D-01-0.340D+00 0.132D+01
 Coeff:     -0.346D-03 0.166D-02 0.694D-02 0.128D-01-0.340D+00 0.132D+01
 Gap=     0.539 Goal=   None    Shift=    0.000
 RMSDP=2.72D-06 MaxDP=7.33D-05 DE=-2.22D-06 OVMax= 2.08D-04

 Cycle   7  Pass 1  IDiag  1:
 E= -76.0440024806662     Delta-E=       -0.000000090957 Rises=F Damp=F
 DIIS: error= 4.39D-06 at cycle   7 NSaved=   7.
 NSaved= 7 IEnMin= 7 EnMin= -76.0440024806662     IErMin= 7 ErrMin= 4.39D-06
 ErrMax= 4.39D-06  0.00D+00 EMaxC= 1.00D-01 BMatC= 1.07D-09 BMatP= 3.10D-08
 IDIUse=1 WtCom= 1.00D+00 WtEn= 0.00D+00
 Coeff-Com:  0.299D-04-0.316D-03-0.165D-02 0.157D-01-0.338D-01-0.969D-01
 Coeff-Com:  0.112D+01
 Coeff:      0.299D-04-0.316D-03-0.165D-02 0.157D-01-0.338D-01-0.969D-01
 Coeff:      0.112D+01
 Gap=     0.539 Goal=   None    Shift=    0.000
 RMSDP=3.80D-07 MaxDP=6.40D-06 DE=-9.10D-08 OVMax= 2.37D-05

 Cycle   8  Pass 1  IDiag  1:
 E= -76.0440024824994     Delta-E=       -0.000000001833 Rises=F Damp=F
 DIIS: error= 9.55D-07 at cycle   8 NSaved=   8.
 NSaved= 8 IEnMin= 8 EnMin= -76.0440024824994     IErMin= 8 ErrMin= 9.55D-07
 ErrMax= 9.55D-07  0.00D+00 EMaxC= 1.00D-01 BMatC= 4.01D-11 BMatP= 1.07D-09
 IDIUse=1 WtCom= 1.00D+00 WtEn= 0.00D+00
 Coeff-Com:  0.592D-05 0.591D-05 0.144D-03-0.390D-02 0.181D-01-0.202D-01
 Coeff-Com: -0.283D+00 0.129D+01
 Coeff:      0.592D-05 0.591D-05 0.144D-03-0.390D-02 0.181D-01-0.202D-01
 Coeff:     -0.283D+00 0.129D+01
 Gap=     0.539 Goal=   None    Shift=    0.000
 RMSDP=1.04D-07 MaxDP=2.79D-06 DE=-1.83D-09 OVMax= 5.85D-06

 Cycle   9  Pass 1  IDiag  1:
 E= -76.0440024825985     Delta-E=       -0.000000000099 Rises=F Damp=F
 DIIS: error= 1.70D-07 at cycle   9 NSaved=   9.
 NSaved= 9 IEnMin= 9 EnMin= -76.0440024825985     IErMin= 9 ErrMin= 1.70D-07
 ErrMax= 1.70D-07  0.00D+00 EMaxC= 1.00D-01 BMatC= 1.10D-12 BMatP= 4.01D-11
 IDIUse=1 WtCom= 1.00D+00 WtEn= 0.00D+00
 Coeff-Com: -0.200D-05 0.371D-05-0.207D-04 0.842D-03-0.406D-02 0.556D-02
 Coeff-Com:  0.673D-01-0.406D+00 0.134D+01
 Coeff:     -0.200D-05 0.371D-05-0.207D-04 0.842D-03-0.406D-02 0.556D-02
 Coeff:      0.673D-01-0.406D+00 0.134D+01
 Gap=     0.539 Goal=   None    Shift=    0.000
 RMSDP=1.87D-08 MaxDP=4.04D-07 DE=-9.91D-11 OVMax= 9.67D-07

 Cycle  10  Pass 1  IDiag  1:
 E= -76.0440024826010     Delta-E=       -0.000000000003 Rises=F Damp=F
 DIIS: error= 3.82D-08 at cycle  10 NSaved=  10.
 NSaved=10 IEnMin=10 EnMin= -76.0440024826010     IErMin=10 ErrMin= 3.82D-08
 ErrMax= 3.82D-08  0.00D+00 EMaxC= 1.00D-01 BMatC= 5.22D-14 BMatP= 1.10D-12
 IDIUse=1 WtCom= 1.00D+00 WtEn= 0.00D+00
 Coeff-Com:  0.672D-06-0.177D-05 0.406D-05-0.238D-03 0.116D-02-0.182D-02
 Coeff-Com: -0.180D-01 0.128D+00-0.609D+00 0.150D+01
 Coeff:      0.672D-06-0.177D-05 0.406D-05-0.238D-03 0.116D-02-0.182D-02
 Coeff:     -0.180D-01 0.128D+00-0.609D+00 0.150D+01
 Gap=     0.539 Goal=   None    Shift=    0.000
 RMSDP=5.14D-09 MaxDP=1.29D-07 DE=-2.57D-12 OVMax= 3.03D-07

 SCF Done:  E(RHF) =  -76.0440024826     A.U. after   10 cycles
            NFock= 10  Conv=0.51D-08     -V/T= 2.0032
 KE= 7.580110180158D+01 PE=-1.980338714182D+02 EE= 3.741456278511D+01
 Leave Link  502 at Wed Feb  8 13:57:25 2023, MaxMem=   754974720 cpu:              12.9 elap:               4.5
 (Enter /opt/cluster/programs/g16-c.01/g16/l801.exe)
 Windowed orbitals will be sorted by symmetry type.
 ExpMin= 2.53D-02 ExpMax= 1.53D+04 ExpMxC= 5.22D+02 IAcc=3 IRadAn=         5 AccDes= 0.00D+00
 HarFok:  IExCor=  205 AccDes= 0.00D+00 IRadAn=         5 IDoV=-2 UseB2=F ITyADJ=14
 ICtDFT= 12500011 ScaDFX=  1.000000  1.000000  1.000000  1.000000
 Largest valence mixing into a core orbital is  1.15D-04
 Largest core mixing into a valence orbital is  1.83D-05
 Range of M.O.s used for correlation:     2    92
 NBasis=    92 NAE=     5 NBE=     5 NFC=     1 NFV=     0
 NROrb=     91 NOA=     4 NOB=     4 NVA=    87 NVB=    87

 **** Warning!!: The largest alpha MO coefficient is  0.13469945D+02

 Leave Link  801 at Wed Feb  8 13:57:25 2023, MaxMem=   754974720 cpu:               0.6 elap:               0.3
 (Enter /opt/cluster/programs/g16-c.01/g16/l804.exe)
 Closed-shell transformation, MDV=   754974720 ITran=4 ISComp=2.
 Unit  1 TFree=        277513 TCopy=        242092.
 Semi-Direct transformation.
 ModeAB=           4 MOrb=             4 LenV=     754589018
 LASXX=       368428 LTotXX=      368428 LenRXX=      751146
 LTotAB=      382718 MaxLAS=     1379560 LenRXY=           0
 NonZer=     1119574 LenScr=     2357760 LnRSAI=     1379560
 LnScr1=     2758656 LExtra=           0 Total=      7247122
 MaxDsk=          -1 SrtSym=           T ITran=            4
 DoSDTr:  NPSUse=  4
 JobTyp=0 Pass  1:  I=   1 to   4.
 (rs|ai) integrals will be sorted in core.
 Complete sort for first half transformation.
 First half transformation complete.
 Complete sort for second half transformation.
 Second half transformation complete.
 Spin components of T(2) and E(2):
     alpha-alpha T2 =       0.8770280317D-02 E2=     -0.3345101945D-01
     alpha-beta  T2 =       0.5098720744D-01 E2=     -0.2080479615D+00
     beta-beta   T2 =       0.8770280317D-02 E2=     -0.3345101945D-01
 ANorm=    0.1033696168D+01
 E2 =    -0.2749500004D+00 EUMP2 =    -0.76318952483016D+02
 Leave Link  804 at Wed Feb  8 13:57:25 2023, MaxMem=   754974720 cpu:               1.4 elap:               0.4
 (Enter /opt/cluster/programs/g16-c.01/g16/l913.exe)
 CIDS:  MDV=   754974720.
 Frozen-core window:  NFC=   1 NFV=   0.
 IFCWin=0 IBDFC=1 NFBD=     0     0 NFCmp=     0     0 NFFFC=     0     0
 Using DD3R+UMP44R for 1st iteration.
 Using DD4RQ for 2nd and later iterations.
 Keep R2 and R3 ints in memory in symmetry-blocked form, NReq=11500115.
 FoFCou: FMM=F IPFlag=           0 FMFlag=           0 FMFlg1=           0
         NFxFlg=           0 DoJE=F BraDBF=F KetDBF=F FulRan=T
         wScrn=  0.000000 ICntrl=       600 IOpCl=  0 I1Cent=           0 NGrid=           0
         NMat0=    1 NMatS0=   4278 NMatT0=    0 NMatD0=    1 NMtDS0=    0 NMtDT0=    0
 Petite list used in FoFCou.
 CIDS: In Core Option IDoMem=           1.
 CCSD(T)
 =======
 Iterations=  50 Convergence= 0.100D-06
 Produce multiple copies of IABC intergrals
 Iteration Nr.   1
 **********************
 DD1Dir will call FoFMem   1 times, MxPair=        20
 NAB=    10 NAA=     0 NBB=     0.
 MP4(R+Q)=  0.44021021D-02
 Maximum subspace dimension=  5
 A-vector RMS=  3.1614360D-03 Max=  1.3631486D-02 conv= 1.00D-05.
 RLE energy=       -0.2715800968
 E3=       -0.10409259D-02        EUMP3=      -0.76319993409D+02
 E4(DQ)=   -0.97464159D-03        UMP4(DQ)=   -0.76320968050D+02
 E4(SDQ)=  -0.32462999D-02        UMP4(SDQ)=  -0.76323239709D+02
 VARIATIONAL ENERGIES WITH THE FIRST-ORDER WAVEFUNCTION:
 DE(Corr)= -0.27153829     E(Corr)=     -76.315540773    
 NORM(A)=   0.10330902D+01
 Iteration Nr.   2
 **********************
 DD1Dir will call FoFMem   1 times, MxPair=        20
 NAB=    10 NAA=     0 NBB=     0.
 A-vector RMS=  3.5287789D-04 Max=  2.4545057D-03 conv= 1.00D-05.
 RLE energy=       -0.2782124628
 DE(Corr)= -0.27781010     E(CORR)=     -76.321812586     Delta=-6.27D-03
 NORM(A)=   0.10356398D+01
 Iteration Nr.   3
 **********************
 DD1Dir will call FoFMem   1 times, MxPair=        20
 NAB=    10 NAA=     0 NBB=     0.
 A-vector RMS=  4.5334124D-04 Max=  2.5290769D-03 conv= 1.00D-05.
 RLE energy=       -0.2786013847
 DE(Corr)= -0.27813095     E(CORR)=     -76.322133430     Delta=-3.21D-04
 NORM(A)=   0.10361910D+01
 Iteration Nr.   4
 **********************
 DD1Dir will call FoFMem   1 times, MxPair=        20
 NAB=    10 NAA=     0 NBB=     0.
 A-vector RMS=  7.6440242D-05 Max=  4.1712558D-04 conv= 1.00D-05.
 RLE energy=       -0.2786462263
 DE(Corr)= -0.27860966     E(CORR)=     -76.322612142     Delta=-4.79D-04
 NORM(A)=   0.10363362D+01
 Iteration Nr.   5
 **********************
 DD1Dir will call FoFMem   1 times, MxPair=        20
 NAB=    10 NAA=     0 NBB=     0.
 A-vector RMS=  3.3451530D-05 Max=  2.1269888D-04 conv= 1.00D-05.
 RLE energy=       -0.2786627165
 DE(Corr)= -0.27865555     E(CORR)=     -76.322658028     Delta=-4.59D-05
 NORM(A)=   0.10363648D+01
 Iteration Nr.   6
 **********************
 DD1Dir will call FoFMem   1 times, MxPair=        20
 NAB=    10 NAA=     0 NBB=     0.
 A-vector RMS=  7.8677548D-06 Max=  4.7346161D-05 conv= 1.00D-05.
 RLE energy=       -0.2786583588
 DE(Corr)= -0.27865933     E(CORR)=     -76.322661808     Delta=-3.78D-06
 NORM(A)=   0.10363668D+01
 Iteration Nr.   7
 **********************
 DD1Dir will call FoFMem   1 times, MxPair=        20
 NAB=    10 NAA=     0 NBB=     0.
 A-vector RMS=  2.5118050D-06 Max=  1.2746007D-05 conv= 1.00D-05.
 RLE energy=       -0.2786583736
 DE(Corr)= -0.27865940     E(CORR)=     -76.322661879     Delta=-7.13D-08
 NORM(A)=   0.10363674D+01
 Iteration Nr.   8
 **********************
 DD1Dir will call FoFMem   1 times, MxPair=        20
 NAB=    10 NAA=     0 NBB=     0.
 A-vector RMS=  1.0545767D-06 Max=  6.7874076D-06 conv= 1.00D-05.
 RLE energy=       -0.2786589585
 DE(Corr)= -0.27865909     E(CORR)=     -76.322661571     Delta= 3.08D-07
 NORM(A)=   0.10363678D+01
 Iteration Nr.   9
 **********************
 DD1Dir will call FoFMem   1 times, MxPair=        20
 NAB=    10 NAA=     0 NBB=     0.
 A-vector RMS=  2.3251186D-07 Max=  1.2144259D-06 conv= 1.00D-05.
 RLE energy=       -0.2786590581
 DE(Corr)= -0.27865908     E(CORR)=     -76.322661565     Delta= 6.04D-09
 NORM(A)=   0.10363680D+01
 CI/CC converged in    9 iterations to DelEn= 6.04D-09 Conv= 1.00D-07 ErrA1= 2.33D-07 Conv= 1.00D-05
 Wavefunction amplitudes converged. E(Corr)=     -76.322661565    
 Largest amplitude= 2.84D-02
 IPart=  2 IA=    6   11.23% done.
 IPart=  1 IA=   11   21.79% done.
 IPart=  4 IA=   16   31.68% done.
 IPart=  1 IA=   21   40.90% done.
 IPart=  4 IA=   27   51.08% done.
 IPart=  1 IA=   33   60.30% done.
 IPart=  2 IA=   41   71.10% done.
 IPart=  3 IA=   49   80.19% done.
 IPart=  4 IA=   61   90.62% done.
 Time for triples=        5.18 seconds.
 T4(CCSD)= -0.97817241D-02
 T5(CCSD)=  0.38591452D-03
 CCSD(T)= -0.76332057375D+02
 Discarding MO integrals.
 Leave Link  913 at Wed Feb  8 13:58:12 2023, MaxMem=   754974720 cpu:              94.0 elap:              47.0
 (Enter /opt/cluster/programs/g16-c.01/g16/l601.exe)
 Copying SCF densities to generalized density rwf, IOpCl= 0 IROHF=0.

 **********************************************************************

            Population analysis using the SCF Density.

 **********************************************************************

 Orbital symmetries:
       Occupied  (A1) (A1) (B2) (A1) (B1)
       Virtual   (A1) (B2) (A1) (B1) (A1) (B2) (B2) (A1) (A2) (B1)
                 (A1) (B2) (A1) (B2) (B2) (A1) (A1) (B1) (A2) (A1)
                 (B1) (B2) (B1) (A1) (A2) (A1) (B2) (A1) (B2) (B1)
                 (B2) (A2) (A1) (B2) (A1) (A2) (B1) (A1) (B2) (B2)
                 (A1) (B1) (A2) (A1) (B1) (A1) (B2) (A1) (B2) (B1)
                 (B2) (A2) (A1) (A1) (B2) (A1) (B1) (B1) (A2) (B2)
                 (A2) (A1) (B1) (B2) (A1) (B2) (A2) (A1) (B2) (B1)
                 (A1) (B2) (A1) (B2) (B1) (B2) (A1) (B1) (A2) (B1)
                 (A2) (A1) (A1) (A1) (B2) (B2) (A1)
 The electronic state is 1-A1.
 Alpha  occ. eigenvalues --  -20.58341  -1.34134  -0.65523  -0.61015  -0.51170
 Alpha virt. eigenvalues --    0.02732   0.04865   0.13203   0.16339   0.17613
 Alpha virt. eigenvalues --    0.18750   0.21608   0.24541   0.27201   0.28085
 Alpha virt. eigenvalues --    0.30117   0.36731   0.42313   0.45141   0.58807
 Alpha virt. eigenvalues --    0.66813   0.69405   0.72287   0.73866   0.83719
 Alpha virt. eigenvalues --    0.87041   0.90020   0.90100   0.90281   0.92054
 Alpha virt. eigenvalues --    0.93432   0.94445   0.99893   1.02622   1.06892
 Alpha virt. eigenvalues --    1.10128   1.17608   1.19473   1.28583   1.41931
 Alpha virt. eigenvalues --    1.50901   1.51189   1.84112   1.87344   1.93632
 Alpha virt. eigenvalues --    2.12215   2.26315   2.30813   2.31603   2.39536
 Alpha virt. eigenvalues --    2.41590   2.44288   2.53487   2.64380   2.71577
 Alpha virt. eigenvalues --    2.73282   2.84479   2.84995   3.41857   3.63108
 Alpha virt. eigenvalues --    3.96302   3.99146   4.01693   4.13149   4.26573
 Alpha virt. eigenvalues --    4.36009   4.38401   4.38736   4.55643   4.70527
 Alpha virt. eigenvalues --    4.75666   4.98675   5.02007   5.02232   5.41084
 Alpha virt. eigenvalues --    5.42878   5.50729   6.30222   6.41304   6.66652
 Alpha virt. eigenvalues --    6.95847   6.98551   7.05437   7.19660   7.28360
 Alpha virt. eigenvalues --    7.30012   7.36593   7.41549   7.67090   7.88639
 Alpha virt. eigenvalues --    8.64018  14.43639
          Condensed to atoms (all electrons):
               1          2          3
     1  O    8.015815   0.247383   0.247383
     2  H    0.247383   0.452242   0.045086
     3  H    0.247383   0.045086   0.452242
 Mulliken charges:
               1
     1  O   -0.510580
     2  H    0.255290
     3  H    0.255290
 Sum of Mulliken charges =  -0.00000
 Mulliken charges with hydrogens summed into heavy atoms:
               1
     1  O   -0.000000
 Electronic spatial extent (au):  <R**2>=             20.1225
 Charge=             -0.0000 electrons
 Dipole moment (field-independent basis, Debye):
    X=             -0.0000    Y=              0.0000    Z=             -2.3067  Tot=              2.3067
 Quadrupole moment (field-independent basis, Debye-Ang):
   XX=             -7.6504   YY=             -5.0012   ZZ=             -5.6724
   XY=              0.0000   XZ=              0.0000   YZ=             -0.0000
 Traceless Quadrupole moment (field-independent basis, Debye-Ang):
   XX=             -1.5424   YY=              1.1068   ZZ=              0.4356
   XY=              0.0000   XZ=              0.0000   YZ=             -0.0000
 Octapole moment (field-independent basis, Debye-Ang**2):
  XXX=              0.0000  YYY=             -0.0000  ZZZ=             -1.5185  XYY=             -0.0000
  XXY=             -0.0000  XXZ=             -0.2522  XZZ=             -0.0000  YZZ=              0.0000
  YYZ=             -1.3981  XYZ=             -0.0000
 Hexadecapole moment (field-independent basis, Debye-Ang**3):
 XXXX=             -6.8090 YYYY=             -6.8695 ZZZZ=             -7.6829 XXXY=             -0.0000
 XXXZ=             -0.0000 YYYX=             -0.0000 YYYZ=             -0.0000 ZZZX=             -0.0000
 ZZZY=             -0.0000 XXYY=             -2.4896 XXZZ=             -2.5370 YYZZ=             -1.8266
 XXYZ=              0.0000 YYXZ=              0.0000 ZZXY=              0.0000
 N-N= 8.774204348936D+00 E-N=-1.980338713526D+02  KE= 7.580110180158D+01
 Symmetry A1   KE= 6.774486069326D+01
 Symmetry A2   KE=-9.590717094997D-20
 Symmetry B1   KE= 4.493310661480D+00
 Symmetry B2   KE= 3.562930446845D+00
 Leave Link  601 at Wed Feb  8 13:58:13 2023, MaxMem=   754974720 cpu:               1.0 elap:               0.5
 (Enter /opt/cluster/programs/g16-c.01/g16/l9999.exe)
 Unable to Open any file for archive entry.
 1\1\GINC-NODE57\SP\RCCSD(T)-FC\Aug-CC-pVTZ\H2O1\BOITTIER\08-Feb-2023\0
 \\#P CCSD(T)/aug-cc-pVTZ scf(maxcycle=200)\\Gaussian input\\0,1\O,0,0.
 ,0.11751,0.\H,0,0.7973622306,-0.5007896629,0.\H,0,-0.5677409216,-0.716
 6070457,0.\\Version=ES64L-G16RevC.01\State=1-A1\HF=-76.0440025\MP2=-76
 .3189525\MP3=-76.3199934\MP4D=-76.3253702\MP4DQ=-76.3209681\MP4SDQ=-76
 .3232397\CCSD=-76.3226616\CCSD(T)=-76.3320574\RMSD=5.140e-09\PG=C02V [
 C2(O1),SGV(H2)]\\@
 The archive entry for this job was punched.


 The lyf so short, the craft so long to lerne.
                             -- Chaucer
 Job cpu time:       0 days  0 hours  2 minutes  0.6 seconds.
 Elapsed time:       0 days  0 hours  0 minutes 58.0 seconds.
 File lengths (MBytes):  RWF=     64 Int=      0 D2E=      0 Chk=      2 Scr=      1
 Normal termination of Gaussian 16 at Wed Feb  8 13:58:13 2023.
