 Entering Gaussian System, Link 0=/opt/cluster/programs/g16-c.01/g16/g16
 Input=/scratch/boittier/jobs/tmp.7261953/gaussian_16_water_wb97_ptz.com
 Output=/scratch/boittier/jobs/tmp.7261953/gaussian_16_water_wb97_ptz.out
 Initial command:
 /opt/cluster/programs/g16-c.01/g16/l1.exe "/scratch/boittier/jobs/tmp.7261953/Gau-109665.inp" -scrdir="/scratch/boittier/jobs/tmp.7261953/"
 Entering Link 1 = /opt/cluster/programs/g16-c.01/g16/l1.exe PID=    109666.
  
 Copyright (c) 1988-2019, Gaussian, Inc.  All Rights Reserved.
  
 This is part of the Gaussian(R) 16 program.  It is based on
 the Gaussian(R) 09 system (copyright 2009, Gaussian, Inc.),
 the Gaussian(R) 03 system (copyright 2003, Gaussian, Inc.),
 the Gaussian(R) 98 system (copyright 1998, Gaussian, Inc.),
 the Gaussian(R) 94 system (copyright 1995, Gaussian, Inc.),
 the Gaussian 92(TM) system (copyright 1992, Gaussian, Inc.),
 the Gaussian 90(TM) system (copyright 1990, Gaussian, Inc.),
 the Gaussian 88(TM) system (copyright 1988, Gaussian, Inc.),
 the Gaussian 86(TM) system (copyright 1986, Carnegie Mellon
 University), and the Gaussian 82(TM) system (copyright 1983,
 Carnegie Mellon University). Gaussian is a federally registered
 trademark of Gaussian, Inc.
  
 This software contains proprietary and confidential information,
 including trade secrets, belonging to Gaussian, Inc.
  
 This software is provided under written license and may be
 used, copied, transmitted, or stored only in accord with that
 written license.
  
 The following legend is applicable only to US Government
 contracts under FAR:
  
                    RESTRICTED RIGHTS LEGEND
  
 Use, reproduction and disclosure by the US Government is
 subject to restrictions as set forth in subparagraphs (a)
 and (c) of the Commercial Computer Software - Restricted
 Rights clause in FAR 52.227-19.
  
 Gaussian, Inc.
 340 Quinnipiac St., Bldg. 40, Wallingford CT 06492
  
  
 ---------------------------------------------------------------
 Warning -- This program may not be used in any manner that
 competes with the business of Gaussian, Inc. or will provide
 assistance to any competitor of Gaussian, Inc.  The licensee
 of this program is prohibited from giving any competitor of
 Gaussian, Inc. access to this program.  By using this program,
 the user acknowledges that Gaussian, Inc. is engaged in the
 business of creating and licensing software in the field of
 computational chemistry and represents and warrants to the
 licensee that it is not a competitor of Gaussian, Inc. and that
 it will not use this program in any manner prohibited above.
 ---------------------------------------------------------------
  

 Cite this work as:
 Gaussian 16, Revision C.01,
 M. J. Frisch, G. W. Trucks, H. B. Schlegel, G. E. Scuseria, 
 M. A. Robb, J. R. Cheeseman, G. Scalmani, V. Barone, 
 G. A. Petersson, H. Nakatsuji, X. Li, M. Caricato, A. V. Marenich, 
 J. Bloino, B. G. Janesko, R. Gomperts, B. Mennucci, H. P. Hratchian, 
 J. V. Ortiz, A. F. Izmaylov, J. L. Sonnenberg, D. Williams-Young, 
 F. Ding, F. Lipparini, F. Egidi, J. Goings, B. Peng, A. Petrone, 
 T. Henderson, D. Ranasinghe, V. G. Zakrzewski, J. Gao, N. Rega, 
 G. Zheng, W. Liang, M. Hada, M. Ehara, K. Toyota, R. Fukuda, 
 J. Hasegawa, M. Ishida, T. Nakajima, Y. Honda, O. Kitao, H. Nakai, 
 T. Vreven, K. Throssell, J. A. Montgomery, Jr., J. E. Peralta, 
 F. Ogliaro, M. J. Bearpark, J. J. Heyd, E. N. Brothers, K. N. Kudin, 
 V. N. Staroverov, T. A. Keith, R. Kobayashi, J. Normand, 
 K. Raghavachari, A. P. Rendell, J. C. Burant, S. S. Iyengar, 
 J. Tomasi, M. Cossi, J. M. Millam, M. Klene, C. Adamo, R. Cammi, 
 J. W. Ochterski, R. L. Martin, K. Morokuma, O. Farkas, 
 J. B. Foresman, and D. J. Fox, Gaussian, Inc., Wallingford CT, 2019.
 
 ******************************************
 Gaussian 16:  ES64L-G16RevC.01  3-Jul-2019
                 8-Feb-2023 
 ******************************************
 %nproc=4
 Will use up to    4 processors via shared memory.
 %mem=5760MB
 %chk=gaussian_16_water_wb97_ptz.chk
 ------------------------------------
 #P wB97XD/6-311g** scf(maxcycle=200)
 ------------------------------------
 1/38=1,172=1/1;
 2/12=2,17=6,18=5,40=1/2;
 3/5=4,6=6,7=101,11=2,25=1,30=1,74=-58/1,2,3;
 4//1;
 5/5=2,7=200,38=5/2;
 6/7=2,8=2,9=2,10=2,28=1/1;
 99/5=1,9=1/99;
 Leave Link    1 at Wed Feb  8 14:40:04 2023, MaxMem=   754974720 cpu:               0.1 elap:               0.0
 (Enter /opt/cluster/programs/g16-c.01/g16/l101.exe)
 --------------
 Gaussian input
 --------------
 Symbolic Z-matrix:
 Charge =  0 Multiplicity = 1
 O                     0.        0.11751   0. 
 H                     0.71834  -0.43951   0. 
 H                    -0.81867  -0.27753   0. 
 
 ITRead=  0  0  0
 MicOpt= -1 -1 -1
 NAtoms=      3 NQM=        3 NQMF=       0 NMMI=      0 NMMIF=      0
                NMic=       0 NMicF=      0.
                    Isotopes and Nuclear Properties:
 (Nuclear quadrupole moments (NQMom) in fm**2, nuclear magnetic moments (NMagM)
  in nuclear magnetons)

  Atom         1           2           3
 IAtWgt=          16           1           1
 AtmWgt=  15.9949146   1.0078250   1.0078250
 NucSpn=           0           1           1
 AtZEff=  -0.0000000  -0.0000000  -0.0000000
 NQMom=    0.0000000   0.0000000   0.0000000
 NMagM=    0.0000000   2.7928460   2.7928460
 AtZNuc=   8.0000000   1.0000000   1.0000000
 Leave Link  101 at Wed Feb  8 14:40:04 2023, MaxMem=   754974720 cpu:               0.7 elap:               0.2
 (Enter /opt/cluster/programs/g16-c.01/g16/l202.exe)
                          Input orientation:                          
 ---------------------------------------------------------------------
 Center     Atomic      Atomic             Coordinates (Angstroms)
 Number     Number       Type             X           Y           Z
 ---------------------------------------------------------------------
      1          8           0        0.000000    0.117510    0.000000
      2          1           0        0.718337   -0.439511    0.000000
      3          1           0       -0.818673   -0.277528    0.000000
 ---------------------------------------------------------------------
                    Distance matrix (angstroms):
                    1          2          3
     1  O    0.000000
     2  H    0.909000   0.000000
     3  H    0.909000   1.545523   0.000000
 Stoichiometry    H2O
 Framework group  C2V[C2(O),SGV(H2)]
 Deg. of freedom     2
 Full point group                 C2V     NOp   4
 Largest Abelian subgroup         C2V     NOp   4
 Largest concise Abelian subgroup C2      NOp   2
                         Standard orientation:                         
 ---------------------------------------------------------------------
 Center     Atomic      Atomic             Coordinates (Angstroms)
 Number     Number       Type             X           Y           Z
 ---------------------------------------------------------------------
      1          8           0       -0.000000   -0.000000    0.095733
      2          1           0       -0.000000    0.772761   -0.382933
      3          1           0       -0.000000   -0.772761   -0.382933
 ---------------------------------------------------------------------
 Rotational constants (GHZ):        1232.2047511         419.8665071         313.1593158
 Leave Link  202 at Wed Feb  8 14:40:04 2023, MaxMem=   754974720 cpu:               0.1 elap:               0.0
 (Enter /opt/cluster/programs/g16-c.01/g16/l301.exe)
 Standard basis: 6-311G(d,p) (5D, 7F)
 Ernie: Thresh=  0.10000D-02 Tol=  0.10000D-05 Strict=F.
 There are    15 symmetry adapted cartesian basis functions of A1  symmetry.
 There are     2 symmetry adapted cartesian basis functions of A2  symmetry.
 There are     5 symmetry adapted cartesian basis functions of B1  symmetry.
 There are     9 symmetry adapted cartesian basis functions of B2  symmetry.
 There are    14 symmetry adapted basis functions of A1  symmetry.
 There are     2 symmetry adapted basis functions of A2  symmetry.
 There are     5 symmetry adapted basis functions of B1  symmetry.
 There are     9 symmetry adapted basis functions of B2  symmetry.
    30 basis functions,    48 primitive gaussians,    31 cartesian basis functions
     5 alpha electrons        5 beta electrons
       nuclear repulsion energy         9.6568440240 Hartrees.
 IExCor= 4639 DFT=T Ex+Corr=wB97XD ExCW=0 ScaHFX=  1.000000
 ScaDFX=  1.000000  1.000000  1.000000  1.000000 ScalE2=  1.000000  1.000000
 IRadAn=      5 IRanWt=     -1 IRanGd=            0 ICorTp=0 IEmpDi=121
 HFx  wShort=  0.000000 wLong=  0.200000 cFull=  0.222036 cShort=  0.000000 cLong=  0.777964
 DFx  wShort=  0.000000 wLong=  0.200000 cFull=  0.000000 cShort=  0.000000 cLong=  1.000000
 NAtoms=    3 NActive=    3 NUniq=    2 SFac= 2.25D+00 NAtFMM=   60 NAOKFM=F Big=F
 Integral buffers will be    131072 words long.
 Raffenetti 2 integral format.
 Two-electron integral symmetry is turned on.
 R6Disp:  Grimme-D2 Dispersion energy=       -0.0000298205 Hartrees.
 Nuclear repulsion after empirical dispersion term =        9.6568142035 Hartrees.
 Leave Link  301 at Wed Feb  8 14:40:04 2023, MaxMem=   754974720 cpu:               0.1 elap:               0.0
 (Enter /opt/cluster/programs/g16-c.01/g16/l302.exe)
 NPDir=0 NMtPBC=     1 NCelOv=     1 NCel=       1 NClECP=     1 NCelD=      1
         NCelK=      1 NCelE2=     1 NClLst=     1 CellRange=     0.0.
 One-electron integrals computed using PRISM.
 One-electron integral symmetry used in STVInt
 NBasis=    30 RedAO= T EigKep=  1.68D-02  NBF=    14     2     5     9
 NBsUse=    30 1.00D-06 EigRej= -1.00D+00 NBFU=    14     2     5     9
 Precomputing XC quadrature grid using
 IXCGrd= 4 IRadAn=           5 IRanWt=          -1 IRanGd=           0 AccXCQ= 0.00D+00.
 Generated NRdTot=       0 NPtTot=           0 NUsed=           0 NTot=          32
 NSgBfM=    31    31    31    31    31 MxSgAt=     3 MxSgA2=     3.
 Leave Link  302 at Wed Feb  8 14:40:04 2023, MaxMem=   754974720 cpu:               0.5 elap:               0.2
 (Enter /opt/cluster/programs/g16-c.01/g16/l303.exe)
 DipDrv:  MaxL=1.
 Leave Link  303 at Wed Feb  8 14:40:04 2023, MaxMem=   754974720 cpu:               0.2 elap:               0.1
 (Enter /opt/cluster/programs/g16-c.01/g16/l401.exe)
 ExpMin= 1.03D-01 ExpMax= 8.59D+03 ExpMxC= 1.30D+03 IAcc=3 IRadAn=         5 AccDes= 0.00D+00
 Harris functional with IExCor= 4639 and IRadAn=       5 diagonalized for initial guess.
 HarFok:  IExCor= 4639 AccDes= 0.00D+00 IRadAn=         5 IDoV= 1 UseB2=F ITyADJ=14
 ICtDFT=  3500011 ScaDFX=  1.000000  1.000000  1.000000  1.000000
 FoFCou: FMM=F IPFlag=           0 FMFlag=      100000 FMFlg1=           0
         NFxFlg=           0 DoJE=T BraDBF=F KetDBF=T FulRan=T
         wScrn=  0.000000 ICntrl=       500 IOpCl=  0 I1Cent=   200000004 NGrid=           0
         NMat0=    1 NMatS0=      1 NMatT0=    0 NMatD0=    1 NMtDS0=    0 NMtDT0=    0
 Petite list used in FoFCou.
 Harris En= -73.5966134251857    
 JPrj=0 DoOrth=F DoCkMO=F.
 Initial guess orbital symmetries:
       Occupied  (A1) (A1) (B2) (A1) (B1)
       Virtual   (A1) (B2) (A1) (B2) (A1) (B1) (B2) (A1) (A2) (A1)
                 (B1) (B2) (A1) (B2) (A1) (B2) (B1) (A2) (A1) (A1)
                 (B2) (B1) (A1) (B2) (A1)
 The electronic state of the initial guess is 1-A1.
 Leave Link  401 at Wed Feb  8 14:40:04 2023, MaxMem=   754974720 cpu:               0.5 elap:               0.1
 (Enter /opt/cluster/programs/g16-c.01/g16/l502.exe)
 Keep R1 ints in memory in symmetry-blocked form, NReq=3688799.
 FoFCou: FMM=F IPFlag=           0 FMFlag=           0 FMFlg1=           0
         NFxFlg=           0 DoJE=F BraDBF=F KetDBF=F FulRan=T
         wScrn=  0.000000 ICntrl=       600 IOpCl=  0 I1Cent=           0 NGrid=           0
         NMat0=    1 NMatS0=    465 NMatT0=    0 NMatD0=    1 NMtDS0=    0 NMtDT0=    0
 Petite list used in FoFCou.
 Closed shell SCF:
 Using DIIS extrapolation, IDIIS=  1040.
 NGot=   754974720 LenX=   754939916 LenY=   754938514
 Requested convergence on RMS density matrix=1.00D-08 within 200 cycles.
 Requested convergence on MAX density matrix=1.00D-06.
 Requested convergence on             energy=1.00D-06.
 No special actions if energy rises.
 Integral accuracy reduced to 1.0D-05 until final iterations.

 Cycle   1  Pass 0  IDiag  1:
 E= -76.4063606713503    
 DIIS: error= 8.53D-02 at cycle   1 NSaved=   1.
 NSaved= 1 IEnMin= 1 EnMin= -76.4063606713503     IErMin= 1 ErrMin= 8.53D-02
 ErrMax= 8.53D-02  0.00D+00 EMaxC= 1.00D-01 BMatC= 1.27D-01 BMatP= 1.27D-01
 IDIUse=3 WtCom= 1.47D-01 WtEn= 8.53D-01
 Coeff-Com:  0.100D+01
 Coeff-En:   0.100D+01
 Coeff:      0.100D+01
 Gap=     0.498 Goal=   None    Shift=    0.000
 GapD=    0.498 DampG=2.000 DampE=0.500 DampFc=1.0000 IDamp=-1.
 RMSDP=2.14D-03 MaxDP=1.49D-02              OVMax= 3.65D-02

 Cycle   2  Pass 0  IDiag  1:
 E= -76.4146534408962     Delta-E=       -0.008292769546 Rises=F Damp=F
 DIIS: error= 9.17D-03 at cycle   2 NSaved=   2.
 NSaved= 2 IEnMin= 2 EnMin= -76.4146534408962     IErMin= 2 ErrMin= 9.17D-03
 ErrMax= 9.17D-03  0.00D+00 EMaxC= 1.00D-01 BMatC= 2.15D-03 BMatP= 1.27D-01
 IDIUse=3 WtCom= 9.08D-01 WtEn= 9.17D-02
 Coeff-Com:  0.497D-01 0.950D+00
 Coeff-En:   0.000D+00 0.100D+01
 Coeff:      0.451D-01 0.955D+00
 Gap=     0.534 Goal=   None    Shift=    0.000
 RMSDP=1.25D-03 MaxDP=1.70D-02 DE=-8.29D-03 OVMax= 1.58D-02

 Cycle   3  Pass 0  IDiag  1:
 E= -76.4149716019181     Delta-E=       -0.000318161022 Rises=F Damp=F
 DIIS: error= 8.75D-03 at cycle   3 NSaved=   3.
 NSaved= 3 IEnMin= 3 EnMin= -76.4149716019181     IErMin= 3 ErrMin= 8.75D-03
 ErrMax= 8.75D-03  0.00D+00 EMaxC= 1.00D-01 BMatC= 1.68D-03 BMatP= 2.15D-03
 IDIUse=3 WtCom= 9.12D-01 WtEn= 8.75D-02
 Coeff-Com:  0.201D-01 0.470D+00 0.510D+00
 Coeff-En:   0.000D+00 0.426D+00 0.574D+00
 Coeff:      0.184D-01 0.466D+00 0.516D+00
 Gap=     0.519 Goal=   None    Shift=    0.000
 RMSDP=5.82D-04 MaxDP=7.15D-03 DE=-3.18D-04 OVMax= 7.86D-03

 Cycle   4  Pass 0  IDiag  1:
 E= -76.4159497172543     Delta-E=       -0.000978115336 Rises=F Damp=F
 DIIS: error= 3.87D-04 at cycle   4 NSaved=   4.
 NSaved= 4 IEnMin= 4 EnMin= -76.4159497172543     IErMin= 4 ErrMin= 3.87D-04
 ErrMax= 3.87D-04  0.00D+00 EMaxC= 1.00D-01 BMatC= 2.63D-06 BMatP= 1.68D-03
 IDIUse=3 WtCom= 9.96D-01 WtEn= 3.87D-03
 Coeff-Com:  0.140D-02 0.411D-01 0.659D-01 0.892D+00
 Coeff-En:   0.000D+00 0.000D+00 0.000D+00 0.100D+01
 Coeff:      0.139D-02 0.409D-01 0.657D-01 0.892D+00
 Gap=     0.519 Goal=   None    Shift=    0.000
 RMSDP=4.63D-05 MaxDP=4.52D-04 DE=-9.78D-04 OVMax= 4.60D-04

 Cycle   5  Pass 0  IDiag  1:
 E= -76.4159516358027     Delta-E=       -0.000001918548 Rises=F Damp=F
 DIIS: error= 5.78D-05 at cycle   5 NSaved=   5.
 NSaved= 5 IEnMin= 5 EnMin= -76.4159516358027     IErMin= 5 ErrMin= 5.78D-05
 ErrMax= 5.78D-05  0.00D+00 EMaxC= 1.00D-01 BMatC= 5.76D-08 BMatP= 2.63D-06
 IDIUse=1 WtCom= 1.00D+00 WtEn= 0.00D+00
 Coeff-Com: -0.692D-03-0.184D-01-0.195D-01-0.408D-01 0.108D+01
 Coeff:     -0.692D-03-0.184D-01-0.195D-01-0.408D-01 0.108D+01
 Gap=     0.519 Goal=   None    Shift=    0.000
 RMSDP=1.92D-05 MaxDP=1.96D-04 DE=-1.92D-06 OVMax= 2.85D-04

 Cycle   6  Pass 0  IDiag  1:
 E= -76.4159517736188     Delta-E=       -0.000000137816 Rises=F Damp=F
 DIIS: error= 1.04D-05 at cycle   6 NSaved=   6.
 NSaved= 6 IEnMin= 6 EnMin= -76.4159517736188     IErMin= 6 ErrMin= 1.04D-05
 ErrMax= 1.04D-05  0.00D+00 EMaxC= 1.00D-01 BMatC= 3.19D-09 BMatP= 5.76D-08
 IDIUse=1 WtCom= 1.00D+00 WtEn= 0.00D+00
 Coeff-Com:  0.136D-03 0.318D-02 0.390D-02-0.148D-01-0.228D+00 0.124D+01
 Coeff:      0.136D-03 0.318D-02 0.390D-02-0.148D-01-0.228D+00 0.124D+01
 Gap=     0.519 Goal=   None    Shift=    0.000
 RMSDP=5.14D-06 MaxDP=5.96D-05 DE=-1.38D-07 OVMax= 7.72D-05

 Initial convergence to 1.0D-05 achieved.  Increase integral accuracy.
 Cycle   7  Pass 1  IDiag  1:
 E= -76.4159531999680     Delta-E=       -0.000001426349 Rises=F Damp=F
 DIIS: error= 8.16D-06 at cycle   1 NSaved=   1.
 NSaved= 1 IEnMin= 1 EnMin= -76.4159531999680     IErMin= 1 ErrMin= 8.16D-06
 ErrMax= 8.16D-06  0.00D+00 EMaxC= 1.00D-01 BMatC= 1.46D-09 BMatP= 1.46D-09
 IDIUse=1 WtCom= 1.00D+00 WtEn= 0.00D+00
 Coeff-Com:  0.100D+01
 Coeff:      0.100D+01
 Gap=     0.519 Goal=   None    Shift=    0.000
 RMSDP=5.14D-06 MaxDP=5.96D-05 DE=-1.43D-06 OVMax= 1.35D-05

 Cycle   8  Pass 1  IDiag  1:
 E= -76.4159532012925     Delta-E=       -0.000000001325 Rises=F Damp=F
 DIIS: error= 1.18D-06 at cycle   2 NSaved=   2.
 NSaved= 2 IEnMin= 2 EnMin= -76.4159532012925     IErMin= 2 ErrMin= 1.18D-06
 ErrMax= 1.18D-06  0.00D+00 EMaxC= 1.00D-01 BMatC= 3.40D-11 BMatP= 1.46D-09
 IDIUse=1 WtCom= 1.00D+00 WtEn= 0.00D+00
 Coeff-Com: -0.411D-01 0.104D+01
 Coeff:     -0.411D-01 0.104D+01
 Gap=     0.519 Goal=   None    Shift=    0.000
 RMSDP=2.09D-07 MaxDP=1.23D-06 DE=-1.32D-09 OVMax= 4.04D-06

 Cycle   9  Pass 1  IDiag  1:
 E= -76.4159532013358     Delta-E=       -0.000000000043 Rises=F Damp=F
 DIIS: error= 3.78D-07 at cycle   3 NSaved=   3.
 NSaved= 3 IEnMin= 3 EnMin= -76.4159532013358     IErMin= 3 ErrMin= 3.78D-07
 ErrMax= 3.78D-07  0.00D+00 EMaxC= 1.00D-01 BMatC= 3.67D-12 BMatP= 3.40D-11
 IDIUse=1 WtCom= 1.00D+00 WtEn= 0.00D+00
 Coeff-Com: -0.228D-01 0.184D+00 0.839D+00
 Coeff:     -0.228D-01 0.184D+00 0.839D+00
 Gap=     0.519 Goal=   None    Shift=    0.000
 RMSDP=6.97D-08 MaxDP=6.79D-07 DE=-4.33D-11 OVMax= 1.45D-06

 Cycle  10  Pass 1  IDiag  1:
 E= -76.4159532013400     Delta-E=       -0.000000000004 Rises=F Damp=F
 DIIS: error= 2.35D-07 at cycle   4 NSaved=   4.
 NSaved= 4 IEnMin= 4 EnMin= -76.4159532013400     IErMin= 4 ErrMin= 2.35D-07
 ErrMax= 2.35D-07  0.00D+00 EMaxC= 1.00D-01 BMatC= 1.09D-12 BMatP= 3.67D-12
 IDIUse=1 WtCom= 1.00D+00 WtEn= 0.00D+00
 Coeff-Com: -0.630D-02-0.458D-03 0.332D+00 0.674D+00
 Coeff:     -0.630D-02-0.458D-03 0.332D+00 0.674D+00
 Gap=     0.519 Goal=   None    Shift=    0.000
 RMSDP=2.56D-08 MaxDP=2.58D-07 DE=-4.19D-12 OVMax= 4.46D-07

 Cycle  11  Pass 1  IDiag  1:
 E= -76.4159532013410     Delta-E=       -0.000000000001 Rises=F Damp=F
 DIIS: error= 5.79D-08 at cycle   5 NSaved=   5.
 NSaved= 5 IEnMin= 5 EnMin= -76.4159532013410     IErMin= 5 ErrMin= 5.79D-08
 ErrMax= 5.79D-08  0.00D+00 EMaxC= 1.00D-01 BMatC= 6.01D-14 BMatP= 1.09D-12
 IDIUse=1 WtCom= 1.00D+00 WtEn= 0.00D+00
 Coeff-Com:  0.363D-02-0.383D-01-0.106D+00 0.693D-01 0.107D+01
 Coeff:      0.363D-02-0.383D-01-0.106D+00 0.693D-01 0.107D+01
 Gap=     0.519 Goal=   None    Shift=    0.000
 RMSDP=1.98D-08 MaxDP=1.96D-07 DE=-1.07D-12 OVMax= 4.07D-07

 Cycle  12  Pass 1  IDiag  1:
 E= -76.4159532013412     Delta-E=       -0.000000000000 Rises=F Damp=F
 DIIS: error= 4.43D-09 at cycle   6 NSaved=   6.
 NSaved= 6 IEnMin= 6 EnMin= -76.4159532013412     IErMin= 6 ErrMin= 4.43D-09
 ErrMax= 4.43D-09  0.00D+00 EMaxC= 1.00D-01 BMatC= 6.80D-16 BMatP= 6.01D-14
 IDIUse=1 WtCom= 1.00D+00 WtEn= 0.00D+00
 Coeff-Com: -0.180D-03 0.338D-02 0.721D-02-0.310D-01-0.134D+00 0.115D+01
 Coeff:     -0.180D-03 0.338D-02 0.721D-02-0.310D-01-0.134D+00 0.115D+01
 Gap=     0.519 Goal=   None    Shift=    0.000
 RMSDP=2.79D-09 MaxDP=3.11D-08 DE=-1.14D-13 OVMax= 4.93D-08

 SCF Done:  E(RwB97XD) =  -76.4159532013     A.U. after   12 cycles
            NFock= 12  Conv=0.28D-08     -V/T= 1.9992
 KE= 7.647333655309D+01 PE=-2.005559132389D+02 EE= 3.800980928094D+01
 Leave Link  502 at Wed Feb  8 14:40:05 2023, MaxMem=   754974720 cpu:               1.4 elap:               0.4
 (Enter /opt/cluster/programs/g16-c.01/g16/l601.exe)
 Copying SCF densities to generalized density rwf, IOpCl= 0 IROHF=0.

 **********************************************************************

            Population analysis using the SCF Density.

 **********************************************************************

 Orbital symmetries:
       Occupied  (A1) (A1) (B2) (A1) (B1)
       Virtual   (A1) (B2) (A1) (B2) (A1) (B1) (B2) (A1) (A2) (A1)
                 (B1) (B2) (A1) (B2) (A1) (B2) (B1) (A2) (A1) (A1)
                 (B2) (B1) (A1) (B2) (A1)
 The electronic state is 1-A1.
 Alpha  occ. eigenvalues --  -19.21130  -1.11566  -0.65131  -0.44408  -0.38741
 Alpha virt. eigenvalues --    0.13186   0.20145   0.50165   0.51637   0.84761
 Alpha virt. eigenvalues --    0.85553   0.95348   1.14539   1.32753   1.49211
 Alpha virt. eigenvalues --    1.62407   1.71140   2.13557   2.14347   2.46833
 Alpha virt. eigenvalues --    2.53319   3.17659   3.34711   3.40196   3.86277
 Alpha virt. eigenvalues --    3.91523   4.89635   5.27129   5.99719  50.06979
          Condensed to atoms (all electrons):
               1          2          3
     1  O    7.827848   0.347675   0.347675
     2  H    0.347675   0.422747  -0.032021
     3  H    0.347675  -0.032021   0.422747
 Mulliken charges:
               1
     1  O   -0.523199
     2  H    0.261599
     3  H    0.261599
 Sum of Mulliken charges =   0.00000
 Mulliken charges with hydrogens summed into heavy atoms:
               1
     1  O    0.000000
 Electronic spatial extent (au):  <R**2>=             18.3612
 Charge=              0.0000 electrons
 Dipole moment (field-independent basis, Debye):
    X=             -0.0000    Y=             -0.0000    Z=             -1.8825  Tot=              1.8825
 Quadrupole moment (field-independent basis, Debye-Ang):
   XX=             -7.0696   YY=             -3.8395   ZZ=             -6.2900
   XY=              0.0000   XZ=              0.0000   YZ=             -0.0000
 Traceless Quadrupole moment (field-independent basis, Debye-Ang):
   XX=             -1.3365   YY=              1.8935   ZZ=             -0.5570
   XY=              0.0000   XZ=              0.0000   YZ=             -0.0000
 Octapole moment (field-independent basis, Debye-Ang**2):
  XXX=              0.0000  YYY=             -0.0000  ZZZ=             -1.1195  XYY=             -0.0000
  XXY=             -0.0000  XXZ=             -0.3280  XZZ=              0.0000  YZZ=             -0.0000
  YYZ=             -1.1612  XYZ=             -0.0000
 Hexadecapole moment (field-independent basis, Debye-Ang**3):
 XXXX=             -5.1283 YYYY=             -5.0835 ZZZZ=             -5.7939 XXXY=             -0.0000
 XXXZ=             -0.0000 YYYX=              0.0000 YYYZ=              0.0000 ZZZX=             -0.0000
 ZZZY=             -0.0000 XXYY=             -2.0255 XXZZ=             -1.8457 YYZZ=             -1.6822
 XXYZ=             -0.0000 YYXZ=              0.0000 ZZXY=             -0.0000
 N-N= 9.656814203521D+00 E-N=-2.005559132746D+02  KE= 7.647333655309D+01
 Symmetry A1   KE= 6.813570216300D+01
 Symmetry A2   KE= 1.890014983103D-34
 Symmetry B1   KE= 4.618300435918D+00
 Symmetry B2   KE= 3.719333954175D+00
 No NMR shielding tensors so no spin-rotation constants.
 Leave Link  601 at Wed Feb  8 14:40:05 2023, MaxMem=   754974720 cpu:               0.4 elap:               0.1
 (Enter /opt/cluster/programs/g16-c.01/g16/l9999.exe)
 Unable to Open any file for archive entry.
 1\1\GINC-NODE65\SP\RwB97XD\6-311G(d,p)\H2O1\BOITTIER\08-Feb-2023\0\\#P
  wB97XD/6-311g** scf(maxcycle=200)\\Gaussian input\\0,1\O,0,0.,0.11751
 ,0.\H,0,0.7183372325,-0.4395112028,0.\H,0,-0.8186734932,-0.2775276078,
 0.\\Version=ES64L-G16RevC.01\State=1-A1\HF=-76.4159532\RMSD=2.792e-09\
 Dipole=-0.0776237,-0.7365469,0.\Quadrupole=1.3877569,-0.3940797,-0.993
 6772,-0.1898946,0.,0.\PG=C02V [C2(O1),SGV(H2)]\\@
 The archive entry for this job was punched.


 IT IS NOT EASY TO DESCRIBE
     THE SEA WITH THE MOUTH

                   -- KOKYU
 Job cpu time:       0 days  0 hours  0 minutes  4.3 seconds.
 Elapsed time:       0 days  0 hours  0 minutes  1.3 seconds.
 File lengths (MBytes):  RWF=      6 Int=      0 D2E=      0 Chk=      1 Scr=      1
 Normal termination of Gaussian 16 at Wed Feb  8 14:40:05 2023.
