 Entering Gaussian System, Link 0=/opt/cluster/programs/g16-c.01/g16/g16
 Input=/scratch/boittier/jobs/tmp.7262113/gaussian_170_water_wb97_ptz.com
 Output=/scratch/boittier/jobs/tmp.7262113/gaussian_170_water_wb97_ptz.out
 Initial command:
 /opt/cluster/programs/g16-c.01/g16/l1.exe "/scratch/boittier/jobs/tmp.7262113/Gau-101221.inp" -scrdir="/scratch/boittier/jobs/tmp.7262113/"
 Entering Link 1 = /opt/cluster/programs/g16-c.01/g16/l1.exe PID=    101222.
  
 Copyright (c) 1988-2019, Gaussian, Inc.  All Rights Reserved.
  
 This is part of the Gaussian(R) 16 program.  It is based on
 the Gaussian(R) 09 system (copyright 2009, Gaussian, Inc.),
 the Gaussian(R) 03 system (copyright 2003, Gaussian, Inc.),
 the Gaussian(R) 98 system (copyright 1998, Gaussian, Inc.),
 the Gaussian(R) 94 system (copyright 1995, Gaussian, Inc.),
 the Gaussian 92(TM) system (copyright 1992, Gaussian, Inc.),
 the Gaussian 90(TM) system (copyright 1990, Gaussian, Inc.),
 the Gaussian 88(TM) system (copyright 1988, Gaussian, Inc.),
 the Gaussian 86(TM) system (copyright 1986, Carnegie Mellon
 University), and the Gaussian 82(TM) system (copyright 1983,
 Carnegie Mellon University). Gaussian is a federally registered
 trademark of Gaussian, Inc.
  
 This software contains proprietary and confidential information,
 including trade secrets, belonging to Gaussian, Inc.
  
 This software is provided under written license and may be
 used, copied, transmitted, or stored only in accord with that
 written license.
  
 The following legend is applicable only to US Government
 contracts under FAR:
  
                    RESTRICTED RIGHTS LEGEND
  
 Use, reproduction and disclosure by the US Government is
 subject to restrictions as set forth in subparagraphs (a)
 and (c) of the Commercial Computer Software - Restricted
 Rights clause in FAR 52.227-19.
  
 Gaussian, Inc.
 340 Quinnipiac St., Bldg. 40, Wallingford CT 06492
  
  
 ---------------------------------------------------------------
 Warning -- This program may not be used in any manner that
 competes with the business of Gaussian, Inc. or will provide
 assistance to any competitor of Gaussian, Inc.  The licensee
 of this program is prohibited from giving any competitor of
 Gaussian, Inc. access to this program.  By using this program,
 the user acknowledges that Gaussian, Inc. is engaged in the
 business of creating and licensing software in the field of
 computational chemistry and represents and warrants to the
 licensee that it is not a competitor of Gaussian, Inc. and that
 it will not use this program in any manner prohibited above.
 ---------------------------------------------------------------
  

 Cite this work as:
 Gaussian 16, Revision C.01,
 M. J. Frisch, G. W. Trucks, H. B. Schlegel, G. E. Scuseria, 
 M. A. Robb, J. R. Cheeseman, G. Scalmani, V. Barone, 
 G. A. Petersson, H. Nakatsuji, X. Li, M. Caricato, A. V. Marenich, 
 J. Bloino, B. G. Janesko, R. Gomperts, B. Mennucci, H. P. Hratchian, 
 J. V. Ortiz, A. F. Izmaylov, J. L. Sonnenberg, D. Williams-Young, 
 F. Ding, F. Lipparini, F. Egidi, J. Goings, B. Peng, A. Petrone, 
 T. Henderson, D. Ranasinghe, V. G. Zakrzewski, J. Gao, N. Rega, 
 G. Zheng, W. Liang, M. Hada, M. Ehara, K. Toyota, R. Fukuda, 
 J. Hasegawa, M. Ishida, T. Nakajima, Y. Honda, O. Kitao, H. Nakai, 
 T. Vreven, K. Throssell, J. A. Montgomery, Jr., J. E. Peralta, 
 F. Ogliaro, M. J. Bearpark, J. J. Heyd, E. N. Brothers, K. N. Kudin, 
 V. N. Staroverov, T. A. Keith, R. Kobayashi, J. Normand, 
 K. Raghavachari, A. P. Rendell, J. C. Burant, S. S. Iyengar, 
 J. Tomasi, M. Cossi, J. M. Millam, M. Klene, C. Adamo, R. Cammi, 
 J. W. Ochterski, R. L. Martin, K. Morokuma, O. Farkas, 
 J. B. Foresman, and D. J. Fox, Gaussian, Inc., Wallingford CT, 2019.
 
 ******************************************
 Gaussian 16:  ES64L-G16RevC.01  3-Jul-2019
                 8-Feb-2023 
 ******************************************
 %nproc=4
 Will use up to    4 processors via shared memory.
 %mem=5760MB
 %chk=gaussian_170_water_wb97_ptz.chk
 ------------------------------------
 #P wB97XD/6-311g** scf(maxcycle=200)
 ------------------------------------
 1/38=1,172=1/1;
 2/12=2,17=6,18=5,40=1/2;
 3/5=4,6=6,7=101,11=2,25=1,30=1,74=-58/1,2,3;
 4//1;
 5/5=2,7=200,38=5/2;
 6/7=2,8=2,9=2,10=2,28=1/1;
 99/5=1,9=1/99;
 Leave Link    1 at Wed Feb  8 14:42:58 2023, MaxMem=   754974720 cpu:               0.1 elap:               0.0
 (Enter /opt/cluster/programs/g16-c.01/g16/l101.exe)
 --------------
 Gaussian input
 --------------
 Symbolic Z-matrix:
 Charge =  0 Multiplicity = 1
 O                     0.        0.11751   0. 
 H                     0.79736  -0.50079   0. 
 H                    -0.79771  -0.50034   0. 
 
 ITRead=  0  0  0
 MicOpt= -1 -1 -1
 NAtoms=      3 NQM=        3 NQMF=       0 NMMI=      0 NMMIF=      0
                NMic=       0 NMicF=      0.
                    Isotopes and Nuclear Properties:
 (Nuclear quadrupole moments (NQMom) in fm**2, nuclear magnetic moments (NMagM)
  in nuclear magnetons)

  Atom         1           2           3
 IAtWgt=          16           1           1
 AtmWgt=  15.9949146   1.0078250   1.0078250
 NucSpn=           0           1           1
 AtZEff=  -0.0000000  -0.0000000  -0.0000000
 NQMom=    0.0000000   0.0000000   0.0000000
 NMagM=    0.0000000   2.7928460   2.7928460
 AtZNuc=   8.0000000   1.0000000   1.0000000
 Leave Link  101 at Wed Feb  8 14:42:59 2023, MaxMem=   754974720 cpu:               0.8 elap:               0.2
 (Enter /opt/cluster/programs/g16-c.01/g16/l202.exe)
                          Input orientation:                          
 ---------------------------------------------------------------------
 Center     Atomic      Atomic             Coordinates (Angstroms)
 Number     Number       Type             X           Y           Z
 ---------------------------------------------------------------------
      1          8           0        0.000000    0.117510    0.000000
      2          1           0        0.797362   -0.500790    0.000000
      3          1           0       -0.797710   -0.500341    0.000000
 ---------------------------------------------------------------------
                    Distance matrix (angstroms):
                    1          2          3
     1  O    0.000000
     2  H    1.009000   0.000000
     3  H    1.009000   1.595072   0.000000
 Stoichiometry    H2O
 Framework group  C2V[C2(O),SGV(H2)]
 Deg. of freedom     2
 Full point group                 C2V     NOp   4
 Largest Abelian subgroup         C2V     NOp   4
 Largest concise Abelian subgroup C2      NOp   2
                         Standard orientation:                         
 ---------------------------------------------------------------------
 Center     Atomic      Atomic             Coordinates (Angstroms)
 Number     Number       Type             X           Y           Z
 ---------------------------------------------------------------------
      1          8           0        0.000000    0.000000    0.123615
      2          1           0        0.000000    0.797536   -0.494460
      3          1           0       -0.000000   -0.797536   -0.494460
 ---------------------------------------------------------------------
 Rotational constants (GHZ):         739.0344925         394.1860806         257.0700859
 Leave Link  202 at Wed Feb  8 14:42:59 2023, MaxMem=   754974720 cpu:               0.2 elap:               0.1
 (Enter /opt/cluster/programs/g16-c.01/g16/l301.exe)
 Standard basis: 6-311G(d,p) (5D, 7F)
 Ernie: Thresh=  0.10000D-02 Tol=  0.10000D-05 Strict=F.
 There are    15 symmetry adapted cartesian basis functions of A1  symmetry.
 There are     2 symmetry adapted cartesian basis functions of A2  symmetry.
 There are     5 symmetry adapted cartesian basis functions of B1  symmetry.
 There are     9 symmetry adapted cartesian basis functions of B2  symmetry.
 There are    14 symmetry adapted basis functions of A1  symmetry.
 There are     2 symmetry adapted basis functions of A2  symmetry.
 There are     5 symmetry adapted basis functions of B1  symmetry.
 There are     9 symmetry adapted basis functions of B2  symmetry.
    30 basis functions,    48 primitive gaussians,    31 cartesian basis functions
     5 alpha electrons        5 beta electrons
       nuclear repulsion energy         8.7230710523 Hartrees.
 IExCor= 4639 DFT=T Ex+Corr=wB97XD ExCW=0 ScaHFX=  1.000000
 ScaDFX=  1.000000  1.000000  1.000000  1.000000 ScalE2=  1.000000  1.000000
 IRadAn=      5 IRanWt=     -1 IRanGd=            0 ICorTp=0 IEmpDi=121
 HFx  wShort=  0.000000 wLong=  0.200000 cFull=  0.222036 cShort=  0.000000 cLong=  0.777964
 DFx  wShort=  0.000000 wLong=  0.200000 cFull=  0.000000 cShort=  0.000000 cLong=  1.000000
 NAtoms=    3 NActive=    3 NUniq=    2 SFac= 2.25D+00 NAtFMM=   60 NAOKFM=F Big=F
 Integral buffers will be    131072 words long.
 Raffenetti 2 integral format.
 Two-electron integral symmetry is turned on.
 R6Disp:  Grimme-D2 Dispersion energy=       -0.0000364599 Hartrees.
 Nuclear repulsion after empirical dispersion term =        8.7230345925 Hartrees.
 Leave Link  301 at Wed Feb  8 14:42:59 2023, MaxMem=   754974720 cpu:               0.1 elap:               0.1
 (Enter /opt/cluster/programs/g16-c.01/g16/l302.exe)
 NPDir=0 NMtPBC=     1 NCelOv=     1 NCel=       1 NClECP=     1 NCelD=      1
         NCelK=      1 NCelE2=     1 NClLst=     1 CellRange=     0.0.
 One-electron integrals computed using PRISM.
 One-electron integral symmetry used in STVInt
 NBasis=    30 RedAO= T EigKep=  2.16D-02  NBF=    14     2     5     9
 NBsUse=    30 1.00D-06 EigRej= -1.00D+00 NBFU=    14     2     5     9
 Precomputing XC quadrature grid using
 IXCGrd= 4 IRadAn=           5 IRanWt=          -1 IRanGd=           0 AccXCQ= 0.00D+00.
 Generated NRdTot=       0 NPtTot=           0 NUsed=           0 NTot=          32
 NSgBfM=    31    31    31    31    31 MxSgAt=     3 MxSgA2=     3.
 Leave Link  302 at Wed Feb  8 14:42:59 2023, MaxMem=   754974720 cpu:               0.6 elap:               0.2
 (Enter /opt/cluster/programs/g16-c.01/g16/l303.exe)
 DipDrv:  MaxL=1.
 Leave Link  303 at Wed Feb  8 14:42:59 2023, MaxMem=   754974720 cpu:               0.2 elap:               0.1
 (Enter /opt/cluster/programs/g16-c.01/g16/l401.exe)
 ExpMin= 1.03D-01 ExpMax= 8.59D+03 ExpMxC= 1.30D+03 IAcc=3 IRadAn=         5 AccDes= 0.00D+00
 Harris functional with IExCor= 4639 and IRadAn=       5 diagonalized for initial guess.
 HarFok:  IExCor= 4639 AccDes= 0.00D+00 IRadAn=         5 IDoV= 1 UseB2=F ITyADJ=14
 ICtDFT=  3500011 ScaDFX=  1.000000  1.000000  1.000000  1.000000
 FoFCou: FMM=F IPFlag=           0 FMFlag=      100000 FMFlg1=           0
         NFxFlg=           0 DoJE=T BraDBF=F KetDBF=T FulRan=T
         wScrn=  0.000000 ICntrl=       500 IOpCl=  0 I1Cent=   200000004 NGrid=           0
         NMat0=    1 NMatS0=      1 NMatT0=    0 NMatD0=    1 NMtDS0=    0 NMtDT0=    0
 Petite list used in FoFCou.
 Harris En= -73.6184576813768    
 JPrj=0 DoOrth=F DoCkMO=F.
 Initial guess orbital symmetries:
       Occupied  (A1) (A1) (B2) (A1) (B1)
       Virtual   (A1) (B2) (B2) (A1) (A1) (B1) (B2) (A1) (A2) (A1)
                 (B1) (B2) (B2) (A1) (A1) (B2) (B1) (A2) (A1) (A1)
                 (B2) (B1) (A1) (B2) (A1)
 The electronic state of the initial guess is 1-A1.
 Leave Link  401 at Wed Feb  8 14:42:59 2023, MaxMem=   754974720 cpu:               0.8 elap:               0.2
 (Enter /opt/cluster/programs/g16-c.01/g16/l502.exe)
 Keep R1 ints in memory in symmetry-blocked form, NReq=3688799.
 FoFCou: FMM=F IPFlag=           0 FMFlag=           0 FMFlg1=           0
         NFxFlg=           0 DoJE=F BraDBF=F KetDBF=F FulRan=T
         wScrn=  0.000000 ICntrl=       600 IOpCl=  0 I1Cent=           0 NGrid=           0
         NMat0=    1 NMatS0=    465 NMatT0=    0 NMatD0=    1 NMtDS0=    0 NMtDT0=    0
 Petite list used in FoFCou.
 Closed shell SCF:
 Using DIIS extrapolation, IDIIS=  1040.
 NGot=   754974720 LenX=   754939916 LenY=   754938514
 Requested convergence on RMS density matrix=1.00D-08 within 200 cycles.
 Requested convergence on MAX density matrix=1.00D-06.
 Requested convergence on             energy=1.00D-06.
 No special actions if energy rises.
 Integral accuracy reduced to 1.0D-05 until final iterations.

 Cycle   1  Pass 0  IDiag  1:
 E= -76.4073060389663    
 DIIS: error= 8.07D-02 at cycle   1 NSaved=   1.
 NSaved= 1 IEnMin= 1 EnMin= -76.4073060389663     IErMin= 1 ErrMin= 8.07D-02
 ErrMax= 8.07D-02  0.00D+00 EMaxC= 1.00D-01 BMatC= 1.32D-01 BMatP= 1.32D-01
 IDIUse=3 WtCom= 1.93D-01 WtEn= 8.07D-01
 Coeff-Com:  0.100D+01
 Coeff-En:   0.100D+01
 Coeff:      0.100D+01
 Gap=     0.487 Goal=   None    Shift=    0.000
 GapD=    0.487 DampG=2.000 DampE=0.500 DampFc=1.0000 IDamp=-1.
 RMSDP=2.97D-03 MaxDP=3.04D-02              OVMax= 3.57D-02

 Cycle   2  Pass 0  IDiag  1:
 E= -76.4182798036143     Delta-E=       -0.010973764648 Rises=F Damp=F
 DIIS: error= 5.08D-03 at cycle   2 NSaved=   2.
 NSaved= 2 IEnMin= 2 EnMin= -76.4182798036143     IErMin= 2 ErrMin= 5.08D-03
 ErrMax= 5.08D-03  0.00D+00 EMaxC= 1.00D-01 BMatC= 7.94D-04 BMatP= 1.32D-01
 IDIUse=3 WtCom= 9.49D-01 WtEn= 5.08D-02
 Coeff-Com:  0.533D-01 0.947D+00
 Coeff-En:   0.000D+00 0.100D+01
 Coeff:      0.506D-01 0.949D+00
 Gap=     0.487 Goal=   None    Shift=    0.000
 RMSDP=3.51D-04 MaxDP=3.53D-03 DE=-1.10D-02 OVMax= 6.53D-03

 Cycle   3  Pass 0  IDiag  1:
 E= -76.4185147870103     Delta-E=       -0.000234983396 Rises=F Damp=F
 DIIS: error= 2.52D-03 at cycle   3 NSaved=   3.
 NSaved= 3 IEnMin= 3 EnMin= -76.4185147870103     IErMin= 3 ErrMin= 2.52D-03
 ErrMax= 2.52D-03  0.00D+00 EMaxC= 1.00D-01 BMatC= 1.30D-04 BMatP= 7.94D-04
 IDIUse=3 WtCom= 9.75D-01 WtEn= 2.52D-02
 Coeff-Com:  0.127D-01 0.323D+00 0.664D+00
 Coeff-En:   0.000D+00 0.000D+00 0.100D+01
 Coeff:      0.123D-01 0.315D+00 0.673D+00
 Gap=     0.492 Goal=   None    Shift=    0.000
 RMSDP=2.20D-04 MaxDP=3.02D-03 DE=-2.35D-04 OVMax= 3.00D-03

 Cycle   4  Pass 0  IDiag  1:
 E= -76.4185813646249     Delta-E=       -0.000066577615 Rises=F Damp=F
 DIIS: error= 9.91D-04 at cycle   4 NSaved=   4.
 NSaved= 4 IEnMin= 4 EnMin= -76.4185813646249     IErMin= 4 ErrMin= 9.91D-04
 ErrMax= 9.91D-04  0.00D+00 EMaxC= 1.00D-01 BMatC= 1.91D-05 BMatP= 1.30D-04
 IDIUse=3 WtCom= 9.90D-01 WtEn= 9.91D-03
 Coeff-Com:  0.201D-02 0.545D-01 0.297D+00 0.647D+00
 Coeff-En:   0.000D+00 0.000D+00 0.466D-01 0.953D+00
 Coeff:      0.199D-02 0.540D-01 0.294D+00 0.650D+00
 Gap=     0.490 Goal=   None    Shift=    0.000
 RMSDP=7.89D-05 MaxDP=1.01D-03 DE=-6.66D-05 OVMax= 1.18D-03

 Cycle   5  Pass 0  IDiag  1:
 E= -76.4185938915868     Delta-E=       -0.000012526962 Rises=F Damp=F
 DIIS: error= 1.07D-04 at cycle   5 NSaved=   5.
 NSaved= 5 IEnMin= 5 EnMin= -76.4185938915868     IErMin= 5 ErrMin= 1.07D-04
 ErrMax= 1.07D-04  0.00D+00 EMaxC= 1.00D-01 BMatC= 1.87D-07 BMatP= 1.91D-05
 IDIUse=3 WtCom= 9.99D-01 WtEn= 1.07D-03
 Coeff-Com: -0.752D-03-0.191D-01-0.435D-01 0.174D-01 0.105D+01
 Coeff-En:   0.000D+00 0.000D+00 0.000D+00 0.000D+00 0.100D+01
 Coeff:     -0.751D-03-0.191D-01-0.434D-01 0.174D-01 0.105D+01
 Gap=     0.491 Goal=   None    Shift=    0.000
 RMSDP=1.65D-05 MaxDP=1.38D-04 DE=-1.25D-05 OVMax= 2.39D-04

 Cycle   6  Pass 0  IDiag  1:
 E= -76.4185940980284     Delta-E=       -0.000000206442 Rises=F Damp=F
 DIIS: error= 1.26D-05 at cycle   6 NSaved=   6.
 NSaved= 6 IEnMin= 6 EnMin= -76.4185940980284     IErMin= 6 ErrMin= 1.26D-05
 ErrMax= 1.26D-05  0.00D+00 EMaxC= 1.00D-01 BMatC= 3.27D-09 BMatP= 1.87D-07
 IDIUse=1 WtCom= 1.00D+00 WtEn= 0.00D+00
 Coeff-Com:  0.129D-03 0.285D-02 0.337D-02-0.314D-02-0.221D+00 0.122D+01
 Coeff:      0.129D-03 0.285D-02 0.337D-02-0.314D-02-0.221D+00 0.122D+01
 Gap=     0.491 Goal=   None    Shift=    0.000
 RMSDP=3.84D-06 MaxDP=4.29D-05 DE=-2.06D-07 OVMax= 6.55D-05

 Initial convergence to 1.0D-05 achieved.  Increase integral accuracy.
 Cycle   7  Pass 1  IDiag  1:
 E= -76.4186042152411     Delta-E=       -0.000010117213 Rises=F Damp=F
 DIIS: error= 1.15D-05 at cycle   1 NSaved=   1.
 NSaved= 1 IEnMin= 1 EnMin= -76.4186042152411     IErMin= 1 ErrMin= 1.15D-05
 ErrMax= 1.15D-05  0.00D+00 EMaxC= 1.00D-01 BMatC= 2.69D-09 BMatP= 2.69D-09
 IDIUse=1 WtCom= 1.00D+00 WtEn= 0.00D+00
 Coeff-Com:  0.100D+01
 Coeff:      0.100D+01
 Gap=     0.491 Goal=   None    Shift=    0.000
 RMSDP=3.84D-06 MaxDP=4.29D-05 DE=-1.01D-05 OVMax= 1.50D-05

 Cycle   8  Pass 1  IDiag  1:
 E= -76.4186042175894     Delta-E=       -0.000000002348 Rises=F Damp=F
 DIIS: error= 1.52D-06 at cycle   2 NSaved=   2.
 NSaved= 2 IEnMin= 2 EnMin= -76.4186042175894     IErMin= 2 ErrMin= 1.52D-06
 ErrMax= 1.52D-06  0.00D+00 EMaxC= 1.00D-01 BMatC= 5.40D-11 BMatP= 2.69D-09
 IDIUse=1 WtCom= 1.00D+00 WtEn= 0.00D+00
 Coeff-Com: -0.775D-01 0.108D+01
 Coeff:     -0.775D-01 0.108D+01
 Gap=     0.491 Goal=   None    Shift=    0.000
 RMSDP=3.12D-07 MaxDP=2.72D-06 DE=-2.35D-09 OVMax= 3.85D-06

 Cycle   9  Pass 1  IDiag  1:
 E= -76.4186042176379     Delta-E=       -0.000000000049 Rises=F Damp=F
 DIIS: error= 8.48D-07 at cycle   3 NSaved=   3.
 NSaved= 3 IEnMin= 3 EnMin= -76.4186042176379     IErMin= 3 ErrMin= 8.48D-07
 ErrMax= 8.48D-07  0.00D+00 EMaxC= 1.00D-01 BMatC= 2.09D-11 BMatP= 5.40D-11
 IDIUse=1 WtCom= 1.00D+00 WtEn= 0.00D+00
 Coeff-Com: -0.435D-01 0.438D+00 0.605D+00
 Coeff:     -0.435D-01 0.438D+00 0.605D+00
 Gap=     0.491 Goal=   None    Shift=    0.000
 RMSDP=9.96D-08 MaxDP=1.41D-06 DE=-4.86D-11 OVMax= 1.63D-06

 Cycle  10  Pass 1  IDiag  1:
 E= -76.4186042176517     Delta-E=       -0.000000000014 Rises=F Damp=F
 DIIS: error= 3.29D-07 at cycle   4 NSaved=   4.
 NSaved= 4 IEnMin= 4 EnMin= -76.4186042176517     IErMin= 4 ErrMin= 3.29D-07
 ErrMax= 3.29D-07  0.00D+00 EMaxC= 1.00D-01 BMatC= 1.74D-12 BMatP= 2.09D-11
 IDIUse=1 WtCom= 1.00D+00 WtEn= 0.00D+00
 Coeff-Com: -0.882D-02 0.464D-01 0.225D+00 0.737D+00
 Coeff:     -0.882D-02 0.464D-01 0.225D+00 0.737D+00
 Gap=     0.491 Goal=   None    Shift=    0.000
 RMSDP=2.91D-08 MaxDP=3.05D-07 DE=-1.38D-11 OVMax= 4.29D-07

 Cycle  11  Pass 1  IDiag  1:
 E= -76.4186042176532     Delta-E=       -0.000000000001 Rises=F Damp=F
 DIIS: error= 4.07D-08 at cycle   5 NSaved=   5.
 NSaved= 5 IEnMin= 5 EnMin= -76.4186042176532     IErMin= 5 ErrMin= 4.07D-08
 ErrMax= 4.07D-08  0.00D+00 EMaxC= 1.00D-01 BMatC= 3.83D-14 BMatP= 1.74D-12
 IDIUse=1 WtCom= 1.00D+00 WtEn= 0.00D+00
 Coeff-Com:  0.395D-02-0.368D-01-0.614D-01-0.104D+00 0.120D+01
 Coeff:      0.395D-02-0.368D-01-0.614D-01-0.104D+00 0.120D+01
 Gap=     0.491 Goal=   None    Shift=    0.000
 RMSDP=1.85D-08 MaxDP=2.00D-07 DE=-1.48D-12 OVMax= 3.85D-07

 Cycle  12  Pass 1  IDiag  1:
 E= -76.4186042176533     Delta-E=       -0.000000000000 Rises=F Damp=F
 DIIS: error= 9.69D-09 at cycle   6 NSaved=   6.
 NSaved= 6 IEnMin= 6 EnMin= -76.4186042176533     IErMin= 6 ErrMin= 9.69D-09
 ErrMax= 9.69D-09  0.00D+00 EMaxC= 1.00D-01 BMatC= 1.70D-15 BMatP= 3.83D-14
 IDIUse=1 WtCom= 1.00D+00 WtEn= 0.00D+00
 Coeff-Com:  0.421D-04 0.113D-02 0.145D-02-0.242D-01-0.143D+00 0.116D+01
 Coeff:      0.421D-04 0.113D-02 0.145D-02-0.242D-01-0.143D+00 0.116D+01
 Gap=     0.491 Goal=   None    Shift=    0.000
 RMSDP=3.32D-09 MaxDP=2.96D-08 DE=-1.14D-13 OVMax= 6.88D-08

 SCF Done:  E(RwB97XD) =  -76.4186042177     A.U. after   12 cycles
            NFock= 12  Conv=0.33D-08     -V/T= 2.0038
 KE= 7.613230612606D+01 PE=-1.985249432781D+02 EE= 3.725099834188D+01
 Leave Link  502 at Wed Feb  8 14:43:00 2023, MaxMem=   754974720 cpu:               2.0 elap:               0.5
 (Enter /opt/cluster/programs/g16-c.01/g16/l601.exe)
 Copying SCF densities to generalized density rwf, IOpCl= 0 IROHF=0.

 **********************************************************************

            Population analysis using the SCF Density.

 **********************************************************************

 Orbital symmetries:
       Occupied  (A1) (A1) (B2) (A1) (B1)
       Virtual   (A1) (B2) (B2) (A1) (A1) (B1) (B2) (A1) (A2) (A1)
                 (B1) (B2) (B2) (A1) (A1) (B2) (B1) (A2) (A1) (A1)
                 (B2) (B1) (A1) (B2) (A1)
 The electronic state is 1-A1.
 Alpha  occ. eigenvalues --  -19.23403  -1.08223  -0.59143  -0.45867  -0.38259
 Alpha virt. eigenvalues --    0.10800   0.18087   0.44269   0.47995   0.85440
 Alpha virt. eigenvalues --    0.85537   0.94535   1.16128   1.34191   1.35396
 Alpha virt. eigenvalues --    1.53921   1.70110   1.95626   2.08752   2.38381
 Alpha virt. eigenvalues --    2.57380   3.15973   3.20138   3.34481   3.65687
 Alpha virt. eigenvalues --    3.86691   4.87508   5.24079   5.58438  49.93050
          Condensed to atoms (all electrons):
               1          2          3
     1  O    7.887393   0.303663   0.303663
     2  H    0.303663   0.478923  -0.029945
     3  H    0.303663  -0.029945   0.478923
 Mulliken charges:
               1
     1  O   -0.494719
     2  H    0.247360
     3  H    0.247360
 Sum of Mulliken charges =   0.00000
 Mulliken charges with hydrogens summed into heavy atoms:
               1
     1  O    0.000000
 Electronic spatial extent (au):  <R**2>=             19.7037
 Charge=              0.0000 electrons
 Dipole moment (field-independent basis, Debye):
    X=             -0.0000    Y=              0.0000    Z=             -2.1207  Tot=              2.1207
 Quadrupole moment (field-independent basis, Debye-Ang):
   XX=             -7.2802   YY=             -4.1272   ZZ=             -6.0486
   XY=              0.0000   XZ=              0.0000   YZ=             -0.0000
 Traceless Quadrupole moment (field-independent basis, Debye-Ang):
   XX=             -1.4616   YY=              1.6915   ZZ=             -0.2299
   XY=              0.0000   XZ=              0.0000   YZ=             -0.0000
 Octapole moment (field-independent basis, Debye-Ang**2):
  XXX=              0.0000  YYY=              0.0000  ZZZ=             -1.2004  XYY=             -0.0000
  XXY=             -0.0000  XXZ=             -0.2973  XZZ=              0.0000  YZZ=              0.0000
  YYZ=             -1.4003  XYZ=             -0.0000
 Hexadecapole moment (field-independent basis, Debye-Ang**3):
 XXXX=             -5.3814 YYYY=             -6.2351 ZZZZ=             -6.5948 XXXY=             -0.0000
 XXXZ=             -0.0000 YYYX=             -0.0000 YYYZ=             -0.0000 ZZZX=             -0.0000
 ZZZY=             -0.0000 XXYY=             -2.2754 XXZZ=             -2.0604 YYZZ=             -1.7377
 XXYZ=              0.0000 YYXZ=              0.0000 ZZXY=             -0.0000
 N-N= 8.723034592469D+00 E-N=-1.985249433969D+02  KE= 7.613230612606D+01
 Symmetry A1   KE= 6.797316603211D+01
 Symmetry A2   KE= 1.095593062729D-35
 Symmetry B1   KE= 4.647183163508D+00
 Symmetry B2   KE= 3.511956930443D+00
 No NMR shielding tensors so no spin-rotation constants.
 Leave Link  601 at Wed Feb  8 14:43:00 2023, MaxMem=   754974720 cpu:               1.1 elap:               0.4
 (Enter /opt/cluster/programs/g16-c.01/g16/l9999.exe)
 Unable to Open any file for archive entry.
 1\1\GINC-NODE61\SP\RwB97XD\6-311G(d,p)\H2O1\BOITTIER\08-Feb-2023\0\\#P
  wB97XD/6-311g** scf(maxcycle=200)\\Gaussian input\\0,1\O,0,0.,0.11751
 ,0.\H,0,0.7973622306,-0.5007896629,0.\H,0,-0.7977100455,-0.5003408585,
 0.\\Version=ES64L-G16RevC.01\State=1-A1\HF=-76.4186042\RMSD=3.317e-09\
 Dipole=-0.0002348,-0.8343483,0.\Quadrupole=1.2575705,-0.1709275,-1.086
 643,-0.0004019,0.,0.\PG=C02V [C2(O1),SGV(H2)]\\@
 The archive entry for this job was punched.


 PERICLES, SOPHOCLES,
 PELOPONESIAN WAR,
 FRENCH VERBS, LATIN VERBS
 H2SO4.
 Job cpu time:       0 days  0 hours  0 minutes  6.3 seconds.
 Elapsed time:       0 days  0 hours  0 minutes  1.8 seconds.
 File lengths (MBytes):  RWF=      6 Int=      0 D2E=      0 Chk=      1 Scr=      1
 Normal termination of Gaussian 16 at Wed Feb  8 14:43:00 2023.
