 Entering Gaussian System, Link 0=/opt/cluster/programs/g16-c.01/g16/g16
 Input=/scratch/boittier/jobs/tmp.7425453/gaussian_160_water_pbe0_dz.com
 Output=/scratch/boittier/jobs/tmp.7425453/gaussian_160_water_pbe0_dz.out
 Initial command:
 /opt/cluster/programs/g16-c.01/g16/l1.exe "/scratch/boittier/jobs/tmp.7425453/Gau-14962.inp" -scrdir="/scratch/boittier/jobs/tmp.7425453/"
 Entering Link 1 = /opt/cluster/programs/g16-c.01/g16/l1.exe PID=     14963.
  
 Copyright (c) 1988-2019, Gaussian, Inc.  All Rights Reserved.
  
 This is part of the Gaussian(R) 16 program.  It is based on
 the Gaussian(R) 09 system (copyright 2009, Gaussian, Inc.),
 the Gaussian(R) 03 system (copyright 2003, Gaussian, Inc.),
 the Gaussian(R) 98 system (copyright 1998, Gaussian, Inc.),
 the Gaussian(R) 94 system (copyright 1995, Gaussian, Inc.),
 the Gaussian 92(TM) system (copyright 1992, Gaussian, Inc.),
 the Gaussian 90(TM) system (copyright 1990, Gaussian, Inc.),
 the Gaussian 88(TM) system (copyright 1988, Gaussian, Inc.),
 the Gaussian 86(TM) system (copyright 1986, Carnegie Mellon
 University), and the Gaussian 82(TM) system (copyright 1983,
 Carnegie Mellon University). Gaussian is a federally registered
 trademark of Gaussian, Inc.
  
 This software contains proprietary and confidential information,
 including trade secrets, belonging to Gaussian, Inc.
  
 This software is provided under written license and may be
 used, copied, transmitted, or stored only in accord with that
 written license.
  
 The following legend is applicable only to US Government
 contracts under FAR:
  
                    RESTRICTED RIGHTS LEGEND
  
 Use, reproduction and disclosure by the US Government is
 subject to restrictions as set forth in subparagraphs (a)
 and (c) of the Commercial Computer Software - Restricted
 Rights clause in FAR 52.227-19.
  
 Gaussian, Inc.
 340 Quinnipiac St., Bldg. 40, Wallingford CT 06492
  
  
 ---------------------------------------------------------------
 Warning -- This program may not be used in any manner that
 competes with the business of Gaussian, Inc. or will provide
 assistance to any competitor of Gaussian, Inc.  The licensee
 of this program is prohibited from giving any competitor of
 Gaussian, Inc. access to this program.  By using this program,
 the user acknowledges that Gaussian, Inc. is engaged in the
 business of creating and licensing software in the field of
 computational chemistry and represents and warrants to the
 licensee that it is not a competitor of Gaussian, Inc. and that
 it will not use this program in any manner prohibited above.
 ---------------------------------------------------------------
  

 Cite this work as:
 Gaussian 16, Revision C.01,
 M. J. Frisch, G. W. Trucks, H. B. Schlegel, G. E. Scuseria, 
 M. A. Robb, J. R. Cheeseman, G. Scalmani, V. Barone, 
 G. A. Petersson, H. Nakatsuji, X. Li, M. Caricato, A. V. Marenich, 
 J. Bloino, B. G. Janesko, R. Gomperts, B. Mennucci, H. P. Hratchian, 
 J. V. Ortiz, A. F. Izmaylov, J. L. Sonnenberg, D. Williams-Young, 
 F. Ding, F. Lipparini, F. Egidi, J. Goings, B. Peng, A. Petrone, 
 T. Henderson, D. Ranasinghe, V. G. Zakrzewski, J. Gao, N. Rega, 
 G. Zheng, W. Liang, M. Hada, M. Ehara, K. Toyota, R. Fukuda, 
 J. Hasegawa, M. Ishida, T. Nakajima, Y. Honda, O. Kitao, H. Nakai, 
 T. Vreven, K. Throssell, J. A. Montgomery, Jr., J. E. Peralta, 
 F. Ogliaro, M. J. Bearpark, J. J. Heyd, E. N. Brothers, K. N. Kudin, 
 V. N. Staroverov, T. A. Keith, R. Kobayashi, J. Normand, 
 K. Raghavachari, A. P. Rendell, J. C. Burant, S. S. Iyengar, 
 J. Tomasi, M. Cossi, J. M. Millam, M. Klene, C. Adamo, R. Cammi, 
 J. W. Ochterski, R. L. Martin, K. Morokuma, O. Farkas, 
 J. B. Foresman, and D. J. Fox, Gaussian, Inc., Wallingford CT, 2019.
 
 ******************************************
 Gaussian 16:  ES64L-G16RevC.01  3-Jul-2019
                20-Mar-2023 
 ******************************************
 %nproc=4
 Will use up to    4 processors via shared memory.
 %mem=5760MB
 %chk=gaussian_160_water_pbe0_dz.chk
 ----------------------------------------
 #P PBE1PBE/aug-cc-pVDZ scf(maxcycle=200)
 ----------------------------------------
 1/38=1,172=1/1;
 2/12=2,17=6,18=5,40=1/2;
 3/5=16,7=10,11=2,25=1,30=1,74=-13/1,2,3;
 4//1;
 5/5=2,7=200,38=5/2;
 6/7=2,8=2,9=2,10=2,28=1/1;
 99/5=1,9=1/99;
 Leave Link    1 at Mon Mar 20 17:35:40 2023, MaxMem=   754974720 cpu:               0.2 elap:               0.1
 (Enter /opt/cluster/programs/g16-c.01/g16/l101.exe)
 --------------
 Gaussian input
 --------------
 Symbolic Z-matrix:
 Charge =  0 Multiplicity = 1
 O                     0.        0.11751   0. 
 H                     0.79736  -0.50079   0. 
 H                    -0.53828  -0.73591   0. 
 
 ITRead=  0  0  0
 MicOpt= -1 -1 -1
 NAtoms=      3 NQM=        3 NQMF=       0 NMMI=      0 NMMIF=      0
                NMic=       0 NMicF=      0.
                    Isotopes and Nuclear Properties:
 (Nuclear quadrupole moments (NQMom) in fm**2, nuclear magnetic moments (NMagM)
  in nuclear magnetons)

  Atom         1           2           3
 IAtWgt=          16           1           1
 AtmWgt=  15.9949146   1.0078250   1.0078250
 NucSpn=           0           1           1
 AtZEff=  -0.0000000  -0.0000000  -0.0000000
 NQMom=    0.0000000   0.0000000   0.0000000
 NMagM=    0.0000000   2.7928460   2.7928460
 AtZNuc=   8.0000000   1.0000000   1.0000000
 Leave Link  101 at Mon Mar 20 17:35:41 2023, MaxMem=   754974720 cpu:               0.7 elap:               0.4
 (Enter /opt/cluster/programs/g16-c.01/g16/l202.exe)
                          Input orientation:                          
 ---------------------------------------------------------------------
 Center     Atomic      Atomic             Coordinates (Angstroms)
 Number     Number       Type             X           Y           Z
 ---------------------------------------------------------------------
      1          8           0        0.000000    0.117510    0.000000
      2          1           0        0.797362   -0.500790    0.000000
      3          1           0       -0.538285   -0.735913    0.000000
 ---------------------------------------------------------------------
                    Distance matrix (angstroms):
                    1          2          3
     1  O    0.000000
     2  H    1.009000   0.000000
     3  H    1.009000   1.356184   0.000000
 Stoichiometry    H2O
 Framework group  C2V[C2(O),SGV(H2)]
 Deg. of freedom     2
 Full point group                 C2V     NOp   4
 Largest Abelian subgroup         C2V     NOp   4
 Largest concise Abelian subgroup C2      NOp   2
                         Standard orientation:                         
 ---------------------------------------------------------------------
 Center     Atomic      Atomic             Coordinates (Angstroms)
 Number     Number       Type             X           Y           Z
 ---------------------------------------------------------------------
      1          8           0       -0.000000   -0.000000    0.149435
      2          1           0        0.000000    0.678092   -0.597741
      3          1           0       -0.000000   -0.678092   -0.597741
 ---------------------------------------------------------------------
 Rotational constants (GHZ):         545.2863413         505.7100637         262.3765306
 Leave Link  202 at Mon Mar 20 17:35:41 2023, MaxMem=   754974720 cpu:               0.2 elap:               0.1
 (Enter /opt/cluster/programs/g16-c.01/g16/l301.exe)
 Standard basis: Aug-CC-pVDZ (5D, 7F)
 Ernie: Thresh=  0.10000D-02 Tol=  0.10000D-05 Strict=F.
 Ernie:  2 primitive shells out of 39 were deleted.
 There are    20 symmetry adapted cartesian basis functions of A1  symmetry.
 There are     4 symmetry adapted cartesian basis functions of A2  symmetry.
 There are     7 symmetry adapted cartesian basis functions of B1  symmetry.
 There are    12 symmetry adapted cartesian basis functions of B2  symmetry.
 There are    18 symmetry adapted basis functions of A1  symmetry.
 There are     4 symmetry adapted basis functions of A2  symmetry.
 There are     7 symmetry adapted basis functions of B1  symmetry.
 There are    12 symmetry adapted basis functions of B2  symmetry.
    41 basis functions,    65 primitive gaussians,    43 cartesian basis functions
     5 alpha electrons        5 beta electrons
       nuclear repulsion energy         8.7815091966 Hartrees.
 IExCor= 1009 DFT=T Ex+Corr=PBE1PBE ExCW=0 ScaHFX=  0.250000
 ScaDFX=  0.750000  0.750000  1.000000  1.000000 ScalE2=  1.000000  1.000000
 IRadAn=      5 IRanWt=     -1 IRanGd=            0 ICorTp=0 IEmpDi=  4
 NAtoms=    3 NActive=    3 NUniq=    2 SFac= 2.25D+00 NAtFMM=   60 NAOKFM=F Big=F
 Integral buffers will be    131072 words long.
 Raffenetti 2 integral format.
 Two-electron integral symmetry is turned on.
 Leave Link  301 at Mon Mar 20 17:35:41 2023, MaxMem=   754974720 cpu:               0.3 elap:               0.2
 (Enter /opt/cluster/programs/g16-c.01/g16/l302.exe)
 NPDir=0 NMtPBC=     1 NCelOv=     1 NCel=       1 NClECP=     1 NCelD=      1
         NCelK=      1 NCelE2=     1 NClLst=     1 CellRange=     0.0.
 One-electron integrals computed using PRISM.
 One-electron integral symmetry used in STVInt
 NBasis=    41 RedAO= T EigKep=  2.09D-03  NBF=    18     4     7    12
 NBsUse=    41 1.00D-06 EigRej= -1.00D+00 NBFU=    18     4     7    12
 Precomputing XC quadrature grid using
 IXCGrd= 4 IRadAn=           5 IRanWt=          -1 IRanGd=           0 AccXCQ= 0.00D+00.
 Generated NRdTot=       0 NPtTot=           0 NUsed=           0 NTot=          32
 NSgBfM=    43    43    43    43    43 MxSgAt=     3 MxSgA2=     3.
 Leave Link  302 at Mon Mar 20 17:35:42 2023, MaxMem=   754974720 cpu:               1.2 elap:               0.6
 (Enter /opt/cluster/programs/g16-c.01/g16/l303.exe)
 DipDrv:  MaxL=1.
 Leave Link  303 at Mon Mar 20 17:35:42 2023, MaxMem=   754974720 cpu:               0.4 elap:               0.2
 (Enter /opt/cluster/programs/g16-c.01/g16/l401.exe)
 ExpMin= 2.97D-02 ExpMax= 1.17D+04 ExpMxC= 4.01D+02 IAcc=3 IRadAn=         5 AccDes= 0.00D+00
 Harris functional with IExCor= 1009 and IRadAn=       5 diagonalized for initial guess.
 HarFok:  IExCor= 1009 AccDes= 0.00D+00 IRadAn=         5 IDoV= 1 UseB2=F ITyADJ=14
 ICtDFT=  3500011 ScaDFX=  1.000000  1.000000  1.000000  1.000000
 FoFCou: FMM=F IPFlag=           0 FMFlag=      100000 FMFlg1=           0
         NFxFlg=           0 DoJE=T BraDBF=F KetDBF=T FulRan=T
         wScrn=  0.000000 ICntrl=       500 IOpCl=  0 I1Cent=   200000004 NGrid=           0
         NMat0=    1 NMatS0=      1 NMatT0=    0 NMatD0=    1 NMtDS0=    0 NMtDT0=    0
 Petite list used in FoFCou.
 Harris En= -76.3827723415155    
 JPrj=0 DoOrth=F DoCkMO=F.
 Initial guess orbital symmetries:
       Occupied  (A1) (A1) (B2) (A1) (B1)
       Virtual   (A1) (B2) (A1) (B1) (B2) (A1) (B2) (A1) (A1) (B1)
                 (A2) (B2) (A1) (B2) (B2) (A1) (B1) (A1) (A2) (A1)
                 (B1) (B2) (A1) (A2) (B2) (A1) (B1) (B2) (A1) (B2)
                 (A1) (B1) (A1) (A2) (A1) (B2)
 The electronic state of the initial guess is 1-A1.
 Leave Link  401 at Mon Mar 20 17:35:43 2023, MaxMem=   754974720 cpu:               1.8 elap:               0.9
 (Enter /opt/cluster/programs/g16-c.01/g16/l502.exe)
 Keep R1 ints in memory in symmetry-blocked form, NReq=3832613.
 FoFCou: FMM=F IPFlag=           0 FMFlag=           0 FMFlg1=           0
         NFxFlg=           0 DoJE=F BraDBF=F KetDBF=F FulRan=T
         wScrn=  0.000000 ICntrl=       600 IOpCl=  0 I1Cent=           0 NGrid=           0
         NMat0=    1 NMatS0=    861 NMatT0=    0 NMatD0=    1 NMtDS0=    0 NMtDT0=    0
 Petite list used in FoFCou.
 Closed shell SCF:
 Using DIIS extrapolation, IDIIS=  1040.
 NGot=   754974720 LenX=   754868251 LenY=   754865961
 Requested convergence on RMS density matrix=1.00D-08 within 200 cycles.
 Requested convergence on MAX density matrix=1.00D-06.
 Requested convergence on             energy=1.00D-06.
 No special actions if energy rises.

 Cycle   1  Pass 1  IDiag  1:
 E= -76.2849400125366    
 DIIS: error= 4.93D-02 at cycle   1 NSaved=   1.
 NSaved= 1 IEnMin= 1 EnMin= -76.2849400125366     IErMin= 1 ErrMin= 4.93D-02
 ErrMax= 4.93D-02  0.00D+00 EMaxC= 1.00D-01 BMatC= 7.88D-02 BMatP= 7.88D-02
 IDIUse=3 WtCom= 5.07D-01 WtEn= 4.93D-01
 Coeff-Com:  0.100D+01
 Coeff-En:   0.100D+01
 Coeff:      0.100D+01
 Gap=     0.176 Goal=   None    Shift=    0.000
 GapD=    0.176 DampG=1.000 DampE=0.500 DampFc=0.5000 IDamp=-1.
 Damping current iteration by 5.00D-01
 RMSDP=1.02D-02 MaxDP=1.52D-01              OVMax= 1.94D-01

 Cycle   2  Pass 1  IDiag  1:
 E= -76.2963424469683     Delta-E=       -0.011402434432 Rises=F Damp=T
 DIIS: error= 2.03D-02 at cycle   2 NSaved=   2.
 NSaved= 2 IEnMin= 2 EnMin= -76.2963424469683     IErMin= 2 ErrMin= 2.03D-02
 ErrMax= 2.03D-02  0.00D+00 EMaxC= 1.00D-01 BMatC= 1.08D-02 BMatP= 7.88D-02
 IDIUse=3 WtCom= 7.97D-01 WtEn= 2.03D-01
 Coeff-Com:  0.261D+00 0.739D+00
 Coeff-En:   0.419D+00 0.581D+00
 Coeff:      0.293D+00 0.707D+00
 Gap=     0.301 Goal=   None    Shift=    0.000
 RMSDP=1.34D-03 MaxDP=1.79D-02 DE=-1.14D-02 OVMax= 1.24D-01

 Cycle   3  Pass 1  IDiag  1:
 E= -76.3472799748785     Delta-E=       -0.050937527910 Rises=F Damp=F
 DIIS: error= 2.65D-03 at cycle   3 NSaved=   3.
 NSaved= 3 IEnMin= 3 EnMin= -76.3472799748785     IErMin= 3 ErrMin= 2.65D-03
 ErrMax= 2.65D-03  0.00D+00 EMaxC= 1.00D-01 BMatC= 2.16D-04 BMatP= 1.08D-02
 IDIUse=3 WtCom= 9.74D-01 WtEn= 2.65D-02
 Coeff-Com:  0.319D-01-0.582D-01 0.103D+01
 Coeff-En:   0.000D+00 0.000D+00 0.100D+01
 Coeff:      0.311D-01-0.566D-01 0.103D+01
 Gap=     0.313 Goal=   None    Shift=    0.000
 RMSDP=1.89D-04 MaxDP=2.84D-03 DE=-5.09D-02 OVMax= 3.31D-03

 Cycle   4  Pass 1  IDiag  1:
 E= -76.3474306672174     Delta-E=       -0.000150692339 Rises=F Damp=F
 DIIS: error= 3.07D-04 at cycle   4 NSaved=   4.
 NSaved= 4 IEnMin= 4 EnMin= -76.3474306672174     IErMin= 4 ErrMin= 3.07D-04
 ErrMax= 3.07D-04  0.00D+00 EMaxC= 1.00D-01 BMatC= 3.50D-06 BMatP= 2.16D-04
 IDIUse=3 WtCom= 9.97D-01 WtEn= 3.07D-03
 Coeff-Com:  0.792D-02-0.251D-01 0.261D+00 0.756D+00
 Coeff-En:   0.000D+00 0.000D+00 0.000D+00 0.100D+01
 Coeff:      0.790D-02-0.251D-01 0.260D+00 0.757D+00
 Gap=     0.314 Goal=   None    Shift=    0.000
 RMSDP=2.05D-05 MaxDP=2.96D-04 DE=-1.51D-04 OVMax= 4.37D-04

 Cycle   5  Pass 1  IDiag  1:
 E= -76.3474329588297     Delta-E=       -0.000002291612 Rises=F Damp=F
 DIIS: error= 1.16D-04 at cycle   5 NSaved=   5.
 NSaved= 5 IEnMin= 5 EnMin= -76.3474329588297     IErMin= 5 ErrMin= 1.16D-04
 ErrMax= 1.16D-04  0.00D+00 EMaxC= 1.00D-01 BMatC= 3.38D-07 BMatP= 3.50D-06
 IDIUse=3 WtCom= 9.99D-01 WtEn= 1.16D-03
 Coeff-Com:  0.152D-02-0.235D-02 0.343D-02 0.461D-01 0.951D+00
 Coeff-En:   0.000D+00 0.000D+00 0.000D+00 0.000D+00 0.100D+01
 Coeff:      0.152D-02-0.235D-02 0.343D-02 0.460D-01 0.951D+00
 Gap=     0.314 Goal=   None    Shift=    0.000
 RMSDP=8.84D-06 MaxDP=1.20D-04 DE=-2.29D-06 OVMax= 1.62D-04

 Cycle   6  Pass 1  IDiag  1:
 E= -76.3474332284329     Delta-E=       -0.000000269603 Rises=F Damp=F
 DIIS: error= 5.14D-06 at cycle   6 NSaved=   6.
 NSaved= 6 IEnMin= 6 EnMin= -76.3474332284329     IErMin= 6 ErrMin= 5.14D-06
 ErrMax= 5.14D-06  0.00D+00 EMaxC= 1.00D-01 BMatC= 4.76D-10 BMatP= 3.38D-07
 IDIUse=1 WtCom= 1.00D+00 WtEn= 0.00D+00
 Coeff-Com: -0.101D-03 0.132D-03-0.429D-03-0.756D-02-0.828D-01 0.109D+01
 Coeff:     -0.101D-03 0.132D-03-0.429D-03-0.756D-02-0.828D-01 0.109D+01
 Gap=     0.314 Goal=   None    Shift=    0.000
 RMSDP=5.07D-07 MaxDP=7.59D-06 DE=-2.70D-07 OVMax= 1.04D-05

 Cycle   7  Pass 1  IDiag  1:
 E= -76.3474332288758     Delta-E=       -0.000000000443 Rises=F Damp=F
 DIIS: error= 1.82D-07 at cycle   7 NSaved=   7.
 NSaved= 7 IEnMin= 7 EnMin= -76.3474332288758     IErMin= 7 ErrMin= 1.82D-07
 ErrMax= 1.82D-07  0.00D+00 EMaxC= 1.00D-01 BMatC= 1.39D-12 BMatP= 4.76D-10
 IDIUse=1 WtCom= 1.00D+00 WtEn= 0.00D+00
 Coeff-Com: -0.706D-05 0.140D-04-0.711D-04 0.332D-03-0.703D-03-0.635D-01
 Coeff-Com:  0.106D+01
 Coeff:     -0.706D-05 0.140D-04-0.711D-04 0.332D-03-0.703D-03-0.635D-01
 Coeff:      0.106D+01
 Gap=     0.314 Goal=   None    Shift=    0.000
 RMSDP=2.56D-08 MaxDP=4.69D-07 DE=-4.43D-10 OVMax= 8.42D-07

 Cycle   8  Pass 1  IDiag  1:
 E= -76.3474332288774     Delta-E=       -0.000000000002 Rises=F Damp=F
 DIIS: error= 3.76D-08 at cycle   8 NSaved=   8.
 NSaved= 8 IEnMin= 8 EnMin= -76.3474332288774     IErMin= 8 ErrMin= 3.76D-08
 ErrMax= 3.76D-08  0.00D+00 EMaxC= 1.00D-01 BMatC= 5.36D-14 BMatP= 1.39D-12
 IDIUse=1 WtCom= 1.00D+00 WtEn= 0.00D+00
 Coeff-Com:  0.479D-06-0.709D-06 0.272D-05 0.561D-04 0.855D-03-0.827D-02
 Coeff-Com:  0.711D-03 0.101D+01
 Coeff:      0.479D-06-0.709D-06 0.272D-05 0.561D-04 0.855D-03-0.827D-02
 Coeff:      0.711D-03 0.101D+01
 Gap=     0.314 Goal=   None    Shift=    0.000
 RMSDP=4.47D-09 MaxDP=6.39D-08 DE=-1.56D-12 OVMax= 9.93D-08

 SCF Done:  E(RPBE1PBE) =  -76.3474332289     A.U. after    8 cycles
            NFock=  8  Conv=0.45D-08     -V/T= 2.0071
 KE= 7.581181321819D+01 PE=-1.979721971928D+02 EE= 3.703144154918D+01
 Leave Link  502 at Mon Mar 20 17:35:43 2023, MaxMem=   754974720 cpu:               1.9 elap:               0.7
 (Enter /opt/cluster/programs/g16-c.01/g16/l601.exe)
 Copying SCF densities to generalized density rwf, IOpCl= 0 IROHF=0.

 **********************************************************************

            Population analysis using the SCF Density.

 **********************************************************************

 Orbital symmetries:
       Occupied  (A1) (A1) (B2) (A1) (B1)
       Virtual   (A1) (B2) (A1) (B1) (A1) (B2) (B2) (A1) (A1) (A2)
                 (B1) (B2) (A1) (B2) (B2) (A1) (A1) (B1) (A2) (A1)
                 (B1) (B2) (A1) (A2) (B2) (A1) (B1) (B2) (A1) (B2)
                 (A1) (A1) (B1) (A2) (A1) (B2)
 The electronic state is 1-A1.
 Alpha  occ. eigenvalues --  -19.24529  -1.04191  -0.49441  -0.44589  -0.33352
 Alpha virt. eigenvalues --   -0.01975   0.03215   0.10481   0.13411   0.14404
 Alpha virt. eigenvalues --    0.14860   0.18432   0.25887   0.26885   0.30001
 Alpha virt. eigenvalues --    0.30032   0.46400   0.49182   0.52837   0.60249
 Alpha virt. eigenvalues --    0.77565   0.93049   0.93428   0.95967   1.05525
 Alpha virt. eigenvalues --    1.17667   1.19010   1.34588   1.71881   1.74335
 Alpha virt. eigenvalues --    1.82882   1.86214   2.15379   2.22312   2.36670
 Alpha virt. eigenvalues --    2.78372   3.30027   3.30666   3.31467   3.58857
 Alpha virt. eigenvalues --    3.79653
          Condensed to atoms (all electrons):
               1          2          3
     1  O    7.748425   0.283183   0.283183
     2  H    0.283183   0.576905  -0.017484
     3  H    0.283183  -0.017484   0.576905
 Mulliken charges:
               1
     1  O   -0.314792
     2  H    0.157396
     3  H    0.157396
 Sum of Mulliken charges =  -0.00000
 Mulliken charges with hydrogens summed into heavy atoms:
               1
     1  O   -0.000000
 Electronic spatial extent (au):  <R**2>=             20.5544
 Charge=             -0.0000 electrons
 Dipole moment (field-independent basis, Debye):
    X=             -0.0000    Y=              0.0000    Z=             -2.1616  Tot=              2.1616
 Quadrupole moment (field-independent basis, Debye-Ang):
   XX=             -7.8288   YY=             -5.2818   ZZ=             -5.8283
   XY=              0.0000   XZ=              0.0000   YZ=              0.0000
 Traceless Quadrupole moment (field-independent basis, Debye-Ang):
   XX=             -1.5158   YY=              1.0312   ZZ=              0.4847
   XY=              0.0000   XZ=              0.0000   YZ=              0.0000
 Octapole moment (field-independent basis, Debye-Ang**2):
  XXX=              0.0000  YYY=             -0.0000  ZZZ=             -1.3167  XYY=             -0.0000
  XXY=              0.0000  XXZ=             -0.2223  XZZ=              0.0000  YZZ=             -0.0000
  YYZ=             -1.2185  XYZ=             -0.0000
 Hexadecapole moment (field-independent basis, Debye-Ang**3):
 XXXX=             -7.6897 YYYY=             -7.4835 ZZZZ=             -8.5009 XXXY=             -0.0000
 XXXZ=             -0.0000 YYYX=             -0.0000 YYYZ=              0.0000 ZZZX=             -0.0000
 ZZZY=             -0.0000 XXYY=             -2.7160 XXZZ=             -2.8140 YYZZ=             -2.1417
 XXYZ=             -0.0000 YYXZ=              0.0000 ZZXY=              0.0000
 N-N= 8.781509196561D+00 E-N=-1.979721957370D+02  KE= 7.581181321819D+01
 Symmetry A1   KE= 6.772048046203D+01
 Symmetry A2   KE= 3.706381374201D-34
 Symmetry B1   KE= 4.454344498214D+00
 Symmetry B2   KE= 3.636988257942D+00
 No NMR shielding tensors so no spin-rotation constants.
 Leave Link  601 at Mon Mar 20 17:35:44 2023, MaxMem=   754974720 cpu:               1.5 elap:               0.7
 (Enter /opt/cluster/programs/g16-c.01/g16/l9999.exe)
 Unable to Open any file for archive entry.
 1\1\GINC-NODE60\SP\RPBE1PBE\Aug-CC-pVDZ\H2O1\BOITTIER\20-Mar-2023\0\\#
 P PBE1PBE/aug-cc-pVDZ scf(maxcycle=200)\\Gaussian input\\0,1\O,0,0.,0.
 11751,0.\H,0,0.7973622306,-0.5007896629,0.\H,0,-0.5382848041,-0.735912
 7966,0.\\Version=ES64L-G16RevC.01\State=1-A1\HF=-76.3474332\RMSD=4.468
 e-09\Dipole=0.1474401,-0.8375524,0.\Quadrupole=0.7544409,0.3725482,-1.
 1269891,0.0693771,0.,0.\PG=C02V [C2(O1),SGV(H2)]\\@
 The archive entry for this job was punched.


 YOU CANNOT THROW TO THE GROUND THE LETTERS OF
 THE GREEK ALPHABET AND PICK UP THE ILIAD.
        - RUFUS CHOATE, 1799-1859
 Job cpu time:       0 days  0 hours  0 minutes  8.5 seconds.
 Elapsed time:       0 days  0 hours  0 minutes  4.0 seconds.
 File lengths (MBytes):  RWF=      6 Int=      0 D2E=      0 Chk=      1 Scr=      1
 Normal termination of Gaussian 16 at Mon Mar 20 17:35:44 2023.
