 Entering Gaussian System, Link 0=/opt/cluster/programs/g16-c.01/g16/g16
 Input=/scratch/boittier/jobs/tmp.7262395/gaussian_167_water_ccsdt_adz.com
 Output=/scratch/boittier/jobs/tmp.7262395/gaussian_167_water_ccsdt_adz.out
 Initial command:
 /opt/cluster/programs/g16-c.01/g16/l1.exe "/scratch/boittier/jobs/tmp.7262395/Gau-175733.inp" -scrdir="/scratch/boittier/jobs/tmp.7262395/"
 Entering Link 1 = /opt/cluster/programs/g16-c.01/g16/l1.exe PID=    175734.
  
 Copyright (c) 1988-2019, Gaussian, Inc.  All Rights Reserved.
  
 This is part of the Gaussian(R) 16 program.  It is based on
 the Gaussian(R) 09 system (copyright 2009, Gaussian, Inc.),
 the Gaussian(R) 03 system (copyright 2003, Gaussian, Inc.),
 the Gaussian(R) 98 system (copyright 1998, Gaussian, Inc.),
 the Gaussian(R) 94 system (copyright 1995, Gaussian, Inc.),
 the Gaussian 92(TM) system (copyright 1992, Gaussian, Inc.),
 the Gaussian 90(TM) system (copyright 1990, Gaussian, Inc.),
 the Gaussian 88(TM) system (copyright 1988, Gaussian, Inc.),
 the Gaussian 86(TM) system (copyright 1986, Carnegie Mellon
 University), and the Gaussian 82(TM) system (copyright 1983,
 Carnegie Mellon University). Gaussian is a federally registered
 trademark of Gaussian, Inc.
  
 This software contains proprietary and confidential information,
 including trade secrets, belonging to Gaussian, Inc.
  
 This software is provided under written license and may be
 used, copied, transmitted, or stored only in accord with that
 written license.
  
 The following legend is applicable only to US Government
 contracts under FAR:
  
                    RESTRICTED RIGHTS LEGEND
  
 Use, reproduction and disclosure by the US Government is
 subject to restrictions as set forth in subparagraphs (a)
 and (c) of the Commercial Computer Software - Restricted
 Rights clause in FAR 52.227-19.
  
 Gaussian, Inc.
 340 Quinnipiac St., Bldg. 40, Wallingford CT 06492
  
  
 ---------------------------------------------------------------
 Warning -- This program may not be used in any manner that
 competes with the business of Gaussian, Inc. or will provide
 assistance to any competitor of Gaussian, Inc.  The licensee
 of this program is prohibited from giving any competitor of
 Gaussian, Inc. access to this program.  By using this program,
 the user acknowledges that Gaussian, Inc. is engaged in the
 business of creating and licensing software in the field of
 computational chemistry and represents and warrants to the
 licensee that it is not a competitor of Gaussian, Inc. and that
 it will not use this program in any manner prohibited above.
 ---------------------------------------------------------------
  

 Cite this work as:
 Gaussian 16, Revision C.01,
 M. J. Frisch, G. W. Trucks, H. B. Schlegel, G. E. Scuseria, 
 M. A. Robb, J. R. Cheeseman, G. Scalmani, V. Barone, 
 G. A. Petersson, H. Nakatsuji, X. Li, M. Caricato, A. V. Marenich, 
 J. Bloino, B. G. Janesko, R. Gomperts, B. Mennucci, H. P. Hratchian, 
 J. V. Ortiz, A. F. Izmaylov, J. L. Sonnenberg, D. Williams-Young, 
 F. Ding, F. Lipparini, F. Egidi, J. Goings, B. Peng, A. Petrone, 
 T. Henderson, D. Ranasinghe, V. G. Zakrzewski, J. Gao, N. Rega, 
 G. Zheng, W. Liang, M. Hada, M. Ehara, K. Toyota, R. Fukuda, 
 J. Hasegawa, M. Ishida, T. Nakajima, Y. Honda, O. Kitao, H. Nakai, 
 T. Vreven, K. Throssell, J. A. Montgomery, Jr., J. E. Peralta, 
 F. Ogliaro, M. J. Bearpark, J. J. Heyd, E. N. Brothers, K. N. Kudin, 
 V. N. Staroverov, T. A. Keith, R. Kobayashi, J. Normand, 
 K. Raghavachari, A. P. Rendell, J. C. Burant, S. S. Iyengar, 
 J. Tomasi, M. Cossi, J. M. Millam, M. Klene, C. Adamo, R. Cammi, 
 J. W. Ochterski, R. L. Martin, K. Morokuma, O. Farkas, 
 J. B. Foresman, and D. J. Fox, Gaussian, Inc., Wallingford CT, 2019.
 
 ******************************************
 Gaussian 16:  ES64L-G16RevC.01  3-Jul-2019
                 8-Feb-2023 
 ******************************************
 %nproc=4
 Will use up to    4 processors via shared memory.
 %mem=5760MB
 %chk=gaussian_167_water_ccsdt_adz.chk
 ----------------------------------------
 #P CCSD(T)/aug-cc-pVDZ scf(maxcycle=200)
 ----------------------------------------
 1/38=1,172=1/1;
 2/12=2,17=6,18=5,40=1/2;
 3/5=16,7=10,11=9,25=1,30=1/1,2,3;
 4//1;
 5/5=2,7=200,38=5/2;
 8/6=4,9=120000,10=1/1,4;
 9/5=7,14=2/13;
 6/7=2,8=2,9=2,10=2/1;
 99/5=1,9=1/99;
 Leave Link    1 at Wed Feb  8 14:51:09 2023, MaxMem=   754974720 cpu:               0.1 elap:               0.1
 (Enter /opt/cluster/programs/g16-c.01/g16/l101.exe)
 --------------
 Gaussian input
 --------------
 Symbolic Z-matrix:
 Charge =  0 Multiplicity = 1
 O                     0.        0.11751   0. 
 H                     0.79736  -0.50079   0. 
 H                    -0.72876  -0.58034   0. 
 
 ITRead=  0  0  0
 MicOpt= -1 -1 -1
 NAtoms=      3 NQM=        3 NQMF=       0 NMMI=      0 NMMIF=      0
                NMic=       0 NMicF=      0.
                    Isotopes and Nuclear Properties:
 (Nuclear quadrupole moments (NQMom) in fm**2, nuclear magnetic moments (NMagM)
  in nuclear magnetons)

  Atom         1           2           3
 IAtWgt=          16           1           1
 AtmWgt=  15.9949146   1.0078250   1.0078250
 NucSpn=           0           1           1
 AtZEff=  -0.0000000  -0.0000000  -0.0000000
 NQMom=    0.0000000   0.0000000   0.0000000
 NMagM=    0.0000000   2.7928460   2.7928460
 AtZNuc=   8.0000000   1.0000000   1.0000000
 Leave Link  101 at Wed Feb  8 14:51:09 2023, MaxMem=   754974720 cpu:               0.3 elap:               0.2
 (Enter /opt/cluster/programs/g16-c.01/g16/l202.exe)
                          Input orientation:                          
 ---------------------------------------------------------------------
 Center     Atomic      Atomic             Coordinates (Angstroms)
 Number     Number       Type             X           Y           Z
 ---------------------------------------------------------------------
      1          8           0        0.000000    0.117510    0.000000
      2          1           0        0.797362   -0.500790    0.000000
      3          1           0       -0.728757   -0.580340    0.000000
 ---------------------------------------------------------------------
                    Distance matrix (angstroms):
                    1          2          3
     1  O    0.000000
     2  H    1.009000   0.000000
     3  H    1.009000   1.528191   0.000000
 Stoichiometry    H2O
 Framework group  C2V[C2(O),SGV(H2)]
 Deg. of freedom     2
 Full point group                 C2V     NOp   4
 Largest Abelian subgroup         C2V     NOp   4
 Largest concise Abelian subgroup C2      NOp   2
                         Standard orientation:                         
 ---------------------------------------------------------------------
 Center     Atomic      Atomic             Coordinates (Angstroms)
 Number     Number       Type             X           Y           Z
 ---------------------------------------------------------------------
      1          8           0       -0.000000    0.000000    0.131794
      2          1           0       -0.000000    0.764096   -0.527174
      3          1           0       -0.000000   -0.764096   -0.527174
 ---------------------------------------------------------------------
 Rotational constants (GHZ):         650.1577505         429.4441079         258.6197986
 Leave Link  202 at Wed Feb  8 14:51:09 2023, MaxMem=   754974720 cpu:               0.3 elap:               0.1
 (Enter /opt/cluster/programs/g16-c.01/g16/l301.exe)
 Standard basis: Aug-CC-pVDZ (5D, 7F)
 Ernie: Thresh=  0.10000D-02 Tol=  0.10000D-05 Strict=F.
 Ernie:  2 primitive shells out of 39 were deleted.
 There are    20 symmetry adapted cartesian basis functions of A1  symmetry.
 There are     4 symmetry adapted cartesian basis functions of A2  symmetry.
 There are     7 symmetry adapted cartesian basis functions of B1  symmetry.
 There are    12 symmetry adapted cartesian basis functions of B2  symmetry.
 There are    18 symmetry adapted basis functions of A1  symmetry.
 There are     4 symmetry adapted basis functions of A2  symmetry.
 There are     7 symmetry adapted basis functions of B1  symmetry.
 There are    12 symmetry adapted basis functions of B2  symmetry.
    41 basis functions,    65 primitive gaussians,    43 cartesian basis functions
     5 alpha electrons        5 beta electrons
       nuclear repulsion energy         8.7375903812 Hartrees.
 IExCor=    0 DFT=F Ex=HF Corr=None ExCW=0 ScaHFX=  1.000000
 ScaDFX=  1.000000  1.000000  1.000000  1.000000 ScalE2=  1.000000  1.000000
 IRadAn=      5 IRanWt=     -1 IRanGd=            0 ICorTp=0 IEmpDi=  4
 NAtoms=    3 NActive=    3 NUniq=    2 SFac= 2.25D+00 NAtFMM=   60 NAOKFM=F Big=F
 Integral buffers will be    131072 words long.
 Raffenetti 1 integral format.
 Two-electron integral symmetry is turned on.
 Leave Link  301 at Wed Feb  8 14:51:09 2023, MaxMem=   754974720 cpu:               0.1 elap:               0.1
 (Enter /opt/cluster/programs/g16-c.01/g16/l302.exe)
 NPDir=0 NMtPBC=     1 NCelOv=     1 NCel=       1 NClECP=     1 NCelD=      1
         NCelK=      1 NCelE2=     1 NClLst=     1 CellRange=     0.0.
 One-electron integrals computed using PRISM.
 One-electron integral symmetry used in STVInt
 NBasis=    41 RedAO= T EigKep=  3.00D-03  NBF=    18     4     7    12
 NBsUse=    41 1.00D-06 EigRej= -1.00D+00 NBFU=    18     4     7    12
 Leave Link  302 at Wed Feb  8 14:51:10 2023, MaxMem=   754974720 cpu:               1.2 elap:               0.5
 (Enter /opt/cluster/programs/g16-c.01/g16/l303.exe)
 DipDrv:  MaxL=1.
 Leave Link  303 at Wed Feb  8 14:51:10 2023, MaxMem=   754974720 cpu:               0.4 elap:               0.2
 (Enter /opt/cluster/programs/g16-c.01/g16/l401.exe)
 ExpMin= 2.97D-02 ExpMax= 1.17D+04 ExpMxC= 4.01D+02 IAcc=3 IRadAn=         5 AccDes= 0.00D+00
 Harris functional with IExCor=  205 and IRadAn=       5 diagonalized for initial guess.
 HarFok:  IExCor=  205 AccDes= 0.00D+00 IRadAn=         5 IDoV= 1 UseB2=F ITyADJ=14
 ICtDFT=  3500011 ScaDFX=  1.000000  1.000000  1.000000  1.000000
 FoFCou: FMM=F IPFlag=           0 FMFlag=      100000 FMFlg1=           0
         NFxFlg=           0 DoJE=T BraDBF=F KetDBF=T FulRan=T
         wScrn=  0.000000 ICntrl=       500 IOpCl=  0 I1Cent=   200000004 NGrid=           0
         NMat0=    1 NMatS0=      1 NMatT0=    0 NMatD0=    1 NMtDS0=    0 NMtDT0=    0
 Petite list used in FoFCou.
 Harris En= -76.1179566737038    
 JPrj=0 DoOrth=F DoCkMO=F.
 Initial guess orbital symmetries:
       Occupied  (A1) (A1) (B2) (A1) (B1)
       Virtual   (A1) (B2) (A1) (B1) (B2) (A1) (B2) (A1) (A1) (A2)
                 (B1) (B2) (A1) (B2) (B2) (A1) (B1) (A1) (A2) (A1)
                 (B1) (B2) (A1) (B2) (A2) (B1) (A1) (B2) (A1) (B2)
                 (A1) (B1) (A1) (A2) (A1) (B2)
 The electronic state of the initial guess is 1-A1.
 Leave Link  401 at Wed Feb  8 14:51:11 2023, MaxMem=   754974720 cpu:               1.7 elap:               0.6
 (Enter /opt/cluster/programs/g16-c.01/g16/l502.exe)
 Keep R1 ints in memory in symmetry-blocked form, NReq=1211474.
 FoFCou: FMM=F IPFlag=           0 FMFlag=           0 FMFlg1=           0
         NFxFlg=           0 DoJE=F BraDBF=F KetDBF=F FulRan=T
         wScrn=  0.000000 ICntrl=       600 IOpCl=  0 I1Cent=           0 NGrid=           0
         NMat0=    1 NMatS0=    861 NMatT0=    0 NMatD0=    1 NMtDS0=    0 NMtDT0=    0
 Petite list used in FoFCou.
 Closed shell SCF:
 Using DIIS extrapolation, IDIIS=  1040.
 NGot=   754974720 LenX=   754868251 LenY=   754865961
 Requested convergence on RMS density matrix=1.00D-08 within 200 cycles.
 Requested convergence on MAX density matrix=1.00D-06.
 Requested convergence on             energy=1.00D-06.
 No special actions if energy rises.

 Cycle   1  Pass 1  IDiag  1:
 E= -75.9614666139969    
 DIIS: error= 4.79D-02 at cycle   1 NSaved=   1.
 NSaved= 1 IEnMin= 1 EnMin= -75.9614666139969     IErMin= 1 ErrMin= 4.79D-02
 ErrMax= 4.79D-02  0.00D+00 EMaxC= 1.00D-01 BMatC= 1.08D-01 BMatP= 1.08D-01
 IDIUse=3 WtCom= 5.21D-01 WtEn= 4.79D-01
 Coeff-Com:  0.100D+01
 Coeff-En:   0.100D+01
 Coeff:      0.100D+01
 Gap=     0.462 Goal=   None    Shift=    0.000
 GapD=    0.462 DampG=2.000 DampE=0.500 DampFc=1.0000 IDamp=-1.
 RMSDP=6.05D-03 MaxDP=1.11D-01              OVMax= 1.23D-01

 Cycle   2  Pass 1  IDiag  1:
 E= -76.0000389634144     Delta-E=       -0.038572349417 Rises=F Damp=F
 DIIS: error= 4.10D-02 at cycle   2 NSaved=   2.
 NSaved= 2 IEnMin= 2 EnMin= -76.0000389634144     IErMin= 2 ErrMin= 4.10D-02
 ErrMax= 4.10D-02  0.00D+00 EMaxC= 1.00D-01 BMatC= 4.56D-02 BMatP= 1.08D-01
 IDIUse=3 WtCom= 5.90D-01 WtEn= 4.10D-01
 Coeff-Com:  0.384D+00 0.616D+00
 Coeff-En:   0.247D+00 0.753D+00
 Coeff:      0.328D+00 0.672D+00
 Gap=     0.556 Goal=   None    Shift=    0.000
 RMSDP=2.96D-03 MaxDP=5.41D-02 DE=-3.86D-02 OVMax= 5.91D-02

 Cycle   3  Pass 1  IDiag  1:
 E= -76.0321194005825     Delta-E=       -0.032080437168 Rises=F Damp=F
 DIIS: error= 4.46D-03 at cycle   3 NSaved=   3.
 NSaved= 3 IEnMin= 3 EnMin= -76.0321194005825     IErMin= 3 ErrMin= 4.46D-03
 ErrMax= 4.46D-03  0.00D+00 EMaxC= 1.00D-01 BMatC= 1.06D-03 BMatP= 4.56D-02
 IDIUse=3 WtCom= 9.55D-01 WtEn= 4.46D-02
 Coeff-Com: -0.396D-01 0.862D-01 0.953D+00
 Coeff-En:   0.000D+00 0.000D+00 0.100D+01
 Coeff:     -0.378D-01 0.824D-01 0.955D+00
 Gap=     0.539 Goal=   None    Shift=    0.000
 RMSDP=4.58D-04 MaxDP=8.37D-03 DE=-3.21D-02 OVMax= 9.84D-03

 Cycle   4  Pass 1  IDiag  1:
 E= -76.0329641081628     Delta-E=       -0.000844707580 Rises=F Damp=F
 DIIS: error= 8.15D-04 at cycle   4 NSaved=   4.
 NSaved= 4 IEnMin= 4 EnMin= -76.0329641081628     IErMin= 4 ErrMin= 8.15D-04
 ErrMax= 8.15D-04  0.00D+00 EMaxC= 1.00D-01 BMatC= 9.53D-06 BMatP= 1.06D-03
 IDIUse=3 WtCom= 9.92D-01 WtEn= 8.15D-03
 Coeff-Com:  0.923D-02-0.428D-01-0.340D+00 0.137D+01
 Coeff-En:   0.000D+00 0.000D+00 0.000D+00 0.100D+01
 Coeff:      0.916D-02-0.425D-01-0.337D+00 0.137D+01
 Gap=     0.541 Goal=   None    Shift=    0.000
 RMSDP=1.24D-04 MaxDP=1.55D-03 DE=-8.45D-04 OVMax= 2.34D-03

 Cycle   5  Pass 1  IDiag  1:
 E= -76.0329883697663     Delta-E=       -0.000024261603 Rises=F Damp=F
 DIIS: error= 2.21D-04 at cycle   5 NSaved=   5.
 NSaved= 5 IEnMin= 5 EnMin= -76.0329883697663     IErMin= 5 ErrMin= 2.21D-04
 ErrMax= 2.21D-04  0.00D+00 EMaxC= 1.00D-01 BMatC= 4.36D-07 BMatP= 9.53D-06
 IDIUse=3 WtCom= 9.98D-01 WtEn= 2.21D-03
 Coeff-Com:  0.126D-03 0.305D-02 0.202D-01-0.270D+00 0.125D+01
 Coeff-En:   0.000D+00 0.000D+00 0.000D+00 0.000D+00 0.100D+01
 Coeff:      0.125D-03 0.304D-02 0.202D-01-0.270D+00 0.125D+01
 Gap=     0.541 Goal=   None    Shift=    0.000
 RMSDP=2.96D-05 MaxDP=4.93D-04 DE=-2.43D-05 OVMax= 6.80D-04

 Cycle   6  Pass 1  IDiag  1:
 E= -76.0329897020092     Delta-E=       -0.000001332243 Rises=F Damp=F
 DIIS: error= 4.30D-05 at cycle   6 NSaved=   6.
 NSaved= 6 IEnMin= 6 EnMin= -76.0329897020092     IErMin= 6 ErrMin= 4.30D-05
 ErrMax= 4.30D-05  0.00D+00 EMaxC= 1.00D-01 BMatC= 1.76D-08 BMatP= 4.36D-07
 IDIUse=1 WtCom= 1.00D+00 WtEn= 0.00D+00
 Coeff-Com: -0.435D-03 0.149D-02 0.124D-01-0.204D-01-0.244D+00 0.125D+01
 Coeff:     -0.435D-03 0.149D-02 0.124D-01-0.204D-01-0.244D+00 0.125D+01
 Gap=     0.541 Goal=   None    Shift=    0.000
 RMSDP=5.48D-06 MaxDP=1.20D-04 DE=-1.33D-06 OVMax= 1.60D-04

 Cycle   7  Pass 1  IDiag  1:
 E= -76.0329897565303     Delta-E=       -0.000000054521 Rises=F Damp=F
 DIIS: error= 6.57D-06 at cycle   7 NSaved=   7.
 NSaved= 7 IEnMin= 7 EnMin= -76.0329897565303     IErMin= 7 ErrMin= 6.57D-06
 ErrMax= 6.57D-06  0.00D+00 EMaxC= 1.00D-01 BMatC= 6.88D-10 BMatP= 1.76D-08
 IDIUse=1 WtCom= 1.00D+00 WtEn= 0.00D+00
 Coeff-Com:  0.144D-03-0.641D-03-0.545D-02 0.214D-01 0.212D-01-0.375D+00
 Coeff-Com:  0.134D+01
 Coeff:      0.144D-03-0.641D-03-0.545D-02 0.214D-01 0.212D-01-0.375D+00
 Coeff:      0.134D+01
 Gap=     0.541 Goal=   None    Shift=    0.000
 RMSDP=9.74D-07 MaxDP=1.70D-05 DE=-5.45D-08 OVMax= 2.64D-05

 Cycle   8  Pass 1  IDiag  1:
 E= -76.0329897582059     Delta-E=       -0.000000001676 Rises=F Damp=F
 DIIS: error= 7.89D-07 at cycle   8 NSaved=   8.
 NSaved= 8 IEnMin= 8 EnMin= -76.0329897582059     IErMin= 8 ErrMin= 7.89D-07
 ErrMax= 7.89D-07  0.00D+00 EMaxC= 1.00D-01 BMatC= 1.89D-11 BMatP= 6.88D-10
 IDIUse=1 WtCom= 1.00D+00 WtEn= 0.00D+00
 Coeff-Com: -0.325D-04 0.158D-03 0.141D-02-0.661D-02 0.926D-03 0.867D-01
 Coeff-Com: -0.457D+00 0.137D+01
 Coeff:     -0.325D-04 0.158D-03 0.141D-02-0.661D-02 0.926D-03 0.867D-01
 Coeff:     -0.457D+00 0.137D+01
 Gap=     0.541 Goal=   None    Shift=    0.000
 RMSDP=2.29D-07 MaxDP=2.94D-06 DE=-1.68D-09 OVMax= 4.32D-06

 Cycle   9  Pass 1  IDiag  1:
 E= -76.0329897582567     Delta-E=       -0.000000000051 Rises=F Damp=F
 DIIS: error= 1.09D-07 at cycle   9 NSaved=   9.
 NSaved= 9 IEnMin= 9 EnMin= -76.0329897582567     IErMin= 9 ErrMin= 1.09D-07
 ErrMax= 1.09D-07  0.00D+00 EMaxC= 1.00D-01 BMatC= 5.35D-13 BMatP= 1.89D-11
 IDIUse=1 WtCom= 1.00D+00 WtEn= 0.00D+00
 Coeff-Com:  0.613D-05-0.307D-04-0.295D-03 0.154D-02-0.731D-03-0.184D-01
 Coeff-Com:  0.118D+00-0.470D+00 0.137D+01
 Coeff:      0.613D-05-0.307D-04-0.295D-03 0.154D-02-0.731D-03-0.184D-01
 Coeff:      0.118D+00-0.470D+00 0.137D+01
 Gap=     0.541 Goal=   None    Shift=    0.000
 RMSDP=3.70D-08 MaxDP=4.51D-07 DE=-5.08D-11 OVMax= 7.51D-07

 Cycle  10  Pass 1  IDiag  1:
 E= -76.0329897582582     Delta-E=       -0.000000000001 Rises=F Damp=F
 DIIS: error= 2.92D-08 at cycle  10 NSaved=  10.
 NSaved=10 IEnMin=10 EnMin= -76.0329897582582     IErMin=10 ErrMin= 2.92D-08
 ErrMax= 2.92D-08  0.00D+00 EMaxC= 1.00D-01 BMatC= 2.65D-14 BMatP= 5.35D-13
 IDIUse=1 WtCom= 1.00D+00 WtEn= 0.00D+00
 Coeff-Com: -0.535D-06 0.285D-05 0.370D-04-0.256D-03 0.359D-03 0.212D-02
 Coeff-Com: -0.202D-01 0.100D+00-0.472D+00 0.139D+01
 Coeff:     -0.535D-06 0.285D-05 0.370D-04-0.256D-03 0.359D-03 0.212D-02
 Coeff:     -0.202D-01 0.100D+00-0.472D+00 0.139D+01
 Gap=     0.541 Goal=   None    Shift=    0.000
 RMSDP=8.43D-09 MaxDP=7.82D-08 DE=-1.48D-12 OVMax= 2.21D-07

 SCF Done:  E(RHF) =  -76.0329897583     A.U. after   10 cycles
            NFock= 10  Conv=0.84D-08     -V/T= 2.0038
 KE= 7.574792464090D+01 PE=-1.978900515095D+02 EE= 3.737154672914D+01
 Leave Link  502 at Wed Feb  8 14:51:13 2023, MaxMem=   754974720 cpu:               5.8 elap:               2.9
 (Enter /opt/cluster/programs/g16-c.01/g16/l801.exe)
 Windowed orbitals will be sorted by symmetry type.
 ExpMin= 2.97D-02 ExpMax= 1.17D+04 ExpMxC= 4.01D+02 IAcc=3 IRadAn=         5 AccDes= 0.00D+00
 HarFok:  IExCor=  205 AccDes= 0.00D+00 IRadAn=         5 IDoV=-2 UseB2=F ITyADJ=14
 ICtDFT= 12500011 ScaDFX=  1.000000  1.000000  1.000000  1.000000
 Largest valence mixing into a core orbital is  6.35D-05
 Largest core mixing into a valence orbital is  1.87D-05
 Range of M.O.s used for correlation:     2    41
 NBasis=    41 NAE=     5 NBE=     5 NFC=     1 NFV=     0
 NROrb=     40 NOA=     4 NOB=     4 NVA=    36 NVB=    36
 Leave Link  801 at Wed Feb  8 14:51:14 2023, MaxMem=   754974720 cpu:               0.5 elap:               0.3
 (Enter /opt/cluster/programs/g16-c.01/g16/l804.exe)
 Closed-shell transformation, MDV=   754974720 ITran=4 ISComp=2.
 Unit  1 TFree=         57018 TCopy=        140846.
 Semi-Direct transformation.
 ModeAB=           4 MOrb=             4 LenV=     754769467
 LASXX=        30213 LTotXX=       30213 LenRXX=       63236
 LTotAB=       33023 MaxLAS=      110560 LenRXY=           0
 NonZer=       93449 LenScr=      785920 LnRSAI=      110560
 LnScr1=      785920 LExtra=           0 Total=      1745636
 MaxDsk=          -1 SrtSym=           T ITran=            4
 DoSDTr:  NPSUse=  4
 JobTyp=0 Pass  1:  I=   1 to   4.
 (rs|ai) integrals will be sorted in core.
 Complete sort for first half transformation.
 First half transformation complete.
 Complete sort for second half transformation.
 Second half transformation complete.
 Spin components of T(2) and E(2):
     alpha-alpha T2 =       0.8195728381D-02 E2=     -0.2850768889D-01
     alpha-beta  T2 =       0.4674586672D-01 E2=     -0.1674933338D+00
     beta-beta   T2 =       0.8195728381D-02 E2=     -0.2850768889D-01
 ANorm=    0.1031085507D+01
 E2 =    -0.2245087115D+00 EUMP2 =    -0.76257498469797D+02
 Leave Link  804 at Wed Feb  8 14:51:14 2023, MaxMem=   754974720 cpu:               0.3 elap:               0.1
 (Enter /opt/cluster/programs/g16-c.01/g16/l913.exe)
 CIDS:  MDV=   754974720.
 Frozen-core window:  NFC=   1 NFV=   0.
 IFCWin=0 IBDFC=1 NFBD=     0     0 NFCmp=     0     0 NFFFC=     0     0
 Using DD3R+UMP44R for 1st iteration.
 Using DD4RQ for 2nd and later iterations.
 Keep R2 and R3 ints in memory in symmetry-blocked form, NReq=1214250.
 FoFCou: FMM=F IPFlag=           0 FMFlag=           0 FMFlg1=           0
         NFxFlg=           0 DoJE=F BraDBF=F KetDBF=F FulRan=T
         wScrn=  0.000000 ICntrl=       600 IOpCl=  0 I1Cent=           0 NGrid=           0
         NMat0=    1 NMatS0=    861 NMatT0=    0 NMatD0=    1 NMtDS0=    0 NMtDT0=    0
 Petite list used in FoFCou.
 CIDS: In Core Option IDoMem=           1.
 CCSD(T)
 =======
 Iterations=  50 Convergence= 0.100D-06
 Produce multiple copies of IABC intergrals
 Iteration Nr.   1
 **********************
 DD1Dir will call FoFMem   1 times, MxPair=        20
 NAB=    10 NAA=     0 NBB=     0.
 MP4(R+Q)=  0.26521786D-02
 Maximum subspace dimension=  5
 A-vector RMS=  5.7914011D-03 Max=  1.8535048D-02 conv= 1.00D-05.
 RLE energy=       -0.2255572360
 E3=       -0.37895103D-02        EUMP3=      -0.76261287980D+02
 E4(DQ)=   -0.18403398D-02        UMP4(DQ)=   -0.76263128320D+02
 E4(SDQ)=  -0.38319230D-02        UMP4(SDQ)=  -0.76265119903D+02
 VARIATIONAL ENERGIES WITH THE FIRST-ORDER WAVEFUNCTION:
 DE(Corr)= -0.22555240     E(Corr)=     -76.258542159    
 NORM(A)=   0.10319279D+01
 Iteration Nr.   2
 **********************
 DD1Dir will call FoFMem   1 times, MxPair=        20
 NAB=    10 NAA=     0 NBB=     0.
 A-vector RMS=  7.1449196D-04 Max=  3.3034353D-03 conv= 1.00D-05.
 RLE energy=       -0.2314124341
 DE(Corr)= -0.23072103     E(CORR)=     -76.263710790     Delta=-5.17D-03
 NORM(A)=   0.10345378D+01
 Iteration Nr.   3
 **********************
 DD1Dir will call FoFMem   1 times, MxPair=        20
 NAB=    10 NAA=     0 NBB=     0.
 A-vector RMS=  8.2779757D-04 Max=  3.1795536D-03 conv= 1.00D-05.
 RLE energy=       -0.2318577117
 DE(Corr)= -0.23135336     E(CORR)=     -76.264343119     Delta=-6.32D-04
 NORM(A)=   0.10351849D+01
 Iteration Nr.   4
 **********************
 DD1Dir will call FoFMem   1 times, MxPair=        20
 NAB=    10 NAA=     0 NBB=     0.
 A-vector RMS=  1.1248733D-04 Max=  4.0577300D-04 conv= 1.00D-05.
 RLE energy=       -0.2319057349
 DE(Corr)= -0.23186781     E(CORR)=     -76.264857571     Delta=-5.14D-04
 NORM(A)=   0.10353272D+01
 Iteration Nr.   5
 **********************
 DD1Dir will call FoFMem   1 times, MxPair=        20
 NAB=    10 NAA=     0 NBB=     0.
 A-vector RMS=  4.3686237D-05 Max=  1.7388658D-04 conv= 1.00D-05.
 RLE energy=       -0.2319144274
 DE(Corr)= -0.23190927     E(CORR)=     -76.264899024     Delta=-4.15D-05
 NORM(A)=   0.10353504D+01
 Iteration Nr.   6
 **********************
 DD1Dir will call FoFMem   1 times, MxPair=        20
 NAB=    10 NAA=     0 NBB=     0.
 A-vector RMS=  1.2103577D-05 Max=  4.5158416D-05 conv= 1.00D-05.
 RLE energy=       -0.2319109605
 DE(Corr)= -0.23191239     E(CORR)=     -76.264902150     Delta=-3.13D-06
 NORM(A)=   0.10353523D+01
 Iteration Nr.   7
 **********************
 DD1Dir will call FoFMem   1 times, MxPair=        20
 NAB=    10 NAA=     0 NBB=     0.
 A-vector RMS=  4.8007323D-06 Max=  1.7289844D-05 conv= 1.00D-05.
 RLE energy=       -0.2319115980
 DE(Corr)= -0.23191246     E(CORR)=     -76.264902214     Delta=-6.33D-08
 NORM(A)=   0.10353529D+01
 Iteration Nr.   8
 **********************
 DD1Dir will call FoFMem   1 times, MxPair=        20
 NAB=    10 NAA=     0 NBB=     0.
 A-vector RMS=  1.6092577D-06 Max=  5.3453848D-06 conv= 1.00D-05.
 RLE energy=       -0.2319119091
 DE(Corr)= -0.23191203     E(CORR)=     -76.264901785     Delta= 4.28D-07
 NORM(A)=   0.10353534D+01
 Iteration Nr.   9
 **********************
 DD1Dir will call FoFMem   1 times, MxPair=        20
 NAB=    10 NAA=     0 NBB=     0.
 A-vector RMS=  4.4150400D-07 Max=  1.6978053D-06 conv= 1.00D-05.
 RLE energy=       -0.2319121910
 DE(Corr)= -0.23191220     E(CORR)=     -76.264901955     Delta=-1.70D-07
 NORM(A)=   0.10353537D+01
 Iteration Nr.  10
 **********************
 DD1Dir will call FoFMem   1 times, MxPair=        20
 NAB=    10 NAA=     0 NBB=     0.
 A-vector RMS=  2.1831570D-07 Max=  7.8408225D-07 conv= 1.00D-05.
 RLE energy=       -0.2319122342
 DE(Corr)= -0.23191221     E(CORR)=     -76.264901968     Delta=-1.33D-08
 NORM(A)=   0.10353538D+01
 CI/CC converged in   10 iterations to DelEn=-1.33D-08 Conv= 1.00D-07 ErrA1= 2.18D-07 Conv= 1.00D-05
 Wavefunction amplitudes converged. E(Corr)=     -76.264901968    
 Largest amplitude= 3.55D-02
 IPart=  3 IA=    3   10.95% done.
 IPart=  4 IA=    5   21.27% done.
 IPart=  2 IA=    7   30.95% done.
 IPart=  1 IA=    9   40.00% done.
 IPart=  4 IA=   12   52.38% done.
 IPart=  4 IA=   15   63.33% done.
 IPart=  1 IA=   18   72.86% done.
 IPart=  1 IA=   21   80.95% done.
 IPart=  3 IA=   26   91.27% done.
 Time for triples=        0.68 seconds.
 T4(CCSD)= -0.61065606D-02
 T5(CCSD)=  0.45094844D-03
 CCSD(T)= -0.76270557580D+02
 Discarding MO integrals.
 Leave Link  913 at Wed Feb  8 14:51:24 2023, MaxMem=   754974720 cpu:              21.2 elap:              10.6
 (Enter /opt/cluster/programs/g16-c.01/g16/l601.exe)
 Copying SCF densities to generalized density rwf, IOpCl= 0 IROHF=0.

 **********************************************************************

            Population analysis using the SCF Density.

 **********************************************************************

 Orbital symmetries:
       Occupied  (A1) (A1) (B2) (A1) (B1)
       Virtual   (A1) (B2) (A1) (B1) (A1) (B2) (B2) (A1) (A1) (A2)
                 (B1) (B2) (A1) (B2) (B2) (A1) (B1) (A1) (A2) (A1)
                 (B2) (B1) (A1) (A2) (B2) (B1) (A1) (B2) (A1) (B2)
                 (A1) (B1) (A1) (A2) (A1) (B2)
 The electronic state is 1-A1.
 Alpha  occ. eigenvalues --  -20.58848  -1.33556  -0.68073  -0.58739  -0.50735
 Alpha virt. eigenvalues --    0.03393   0.05818   0.17419   0.19975   0.21925
 Alpha virt. eigenvalues --    0.23499   0.27219   0.33447   0.38513   0.38556
 Alpha virt. eigenvalues --    0.41735   0.53757   0.63272   0.65345   0.77837
 Alpha virt. eigenvalues --    0.93301   1.11154   1.12369   1.14361   1.26556
 Alpha virt. eigenvalues --    1.44250   1.45995   1.57516   1.96862   1.97995
 Alpha virt. eigenvalues --    2.09482   2.27273   2.39058   2.52213   2.68382
 Alpha virt. eigenvalues --    3.01168   3.67349   3.68406   3.68973   3.94024
 Alpha virt. eigenvalues --    4.20853
          Condensed to atoms (all electrons):
               1          2          3
     1  O    7.771033   0.313207   0.313207
     2  H    0.313207   0.502298  -0.014228
     3  H    0.313207  -0.014228   0.502298
 Mulliken charges:
               1
     1  O   -0.397446
     2  H    0.198723
     3  H    0.198723
 Sum of Mulliken charges =   0.00000
 Mulliken charges with hydrogens summed into heavy atoms:
               1
     1  O    0.000000
 Electronic spatial extent (au):  <R**2>=             20.2078
 Charge=              0.0000 electrons
 Dipole moment (field-independent basis, Debye):
    X=             -0.0000    Y=             -0.0000    Z=             -2.1376  Tot=              2.1376
 Quadrupole moment (field-independent basis, Debye-Ang):
   XX=             -7.6982   YY=             -4.4473   ZZ=             -6.0889
   XY=              0.0000   XZ=              0.0000   YZ=              0.0000
 Traceless Quadrupole moment (field-independent basis, Debye-Ang):
   XX=             -1.6200   YY=              1.6308   ZZ=             -0.0108
   XY=              0.0000   XZ=              0.0000   YZ=              0.0000
 Octapole moment (field-independent basis, Debye-Ang**2):
  XXX=              0.0000  YYY=             -0.0000  ZZZ=             -1.2795  XYY=             -0.0000
  XXY=              0.0000  XXZ=             -0.2706  XZZ=              0.0000  YZZ=             -0.0000
  YYZ=             -1.5192  XYZ=             -0.0000
 Hexadecapole moment (field-independent basis, Debye-Ang**3):
 XXXX=             -6.9405 YYYY=             -6.5848 ZZZZ=             -7.7445 XXXY=             -0.0000
 XXXZ=             -0.0000 YYYX=             -0.0000 YYYZ=              0.0000 ZZZX=             -0.0000
 ZZZY=             -0.0000 XXYY=             -2.5706 XXZZ=             -2.5264 YYZZ=             -1.9014
 XXYZ=             -0.0000 YYXZ=              0.0000 ZZXY=              0.0000
 N-N= 8.737590381170D+00 E-N=-1.978900518963D+02  KE= 7.574792464090D+01
 Symmetry A1   KE= 6.781976106835D+01
 Symmetry A2   KE= 1.323545507300D-33
 Symmetry B1   KE= 4.459090273549D+00
 Symmetry B2   KE= 3.469073299000D+00
 Leave Link  601 at Wed Feb  8 14:51:25 2023, MaxMem=   754974720 cpu:               0.7 elap:               0.3
 (Enter /opt/cluster/programs/g16-c.01/g16/l9999.exe)
 Unable to Open any file for archive entry.
 1\1\GINC-NODE62\SP\RCCSD(T)-FC\Aug-CC-pVDZ\H2O1\BOITTIER\08-Feb-2023\0
 \\#P CCSD(T)/aug-cc-pVDZ scf(maxcycle=200)\\Gaussian input\\0,1\O,0,0.
 ,0.11751,0.\H,0,0.7973622306,-0.5007896629,0.\H,0,-0.7287571056,-0.580
 339612,0.\\Version=ES64L-G16RevC.01\State=1-A1\HF=-76.0329898\MP2=-76.
 2574985\MP3=-76.261288\MP4D=-76.2657805\MP4DQ=-76.2631283\MP4SDQ=-76.2
 651199\CCSD=-76.264902\CCSD(T)=-76.2705576\RMSD=8.434e-09\PG=C02V [C2(
 O1),SGV(H2)]\\@
 The archive entry for this job was punched.


 SOME PEOPLE TRY TO PULL THE WOOL OVER YOUR EYES
 USING THE WRONG YARN.
 Job cpu time:       0 days  0 hours  0 minutes 32.8 seconds.
 Elapsed time:       0 days  0 hours  0 minutes 16.0 seconds.
 File lengths (MBytes):  RWF=     20 Int=      0 D2E=      0 Chk=      1 Scr=      1
 Normal termination of Gaussian 16 at Wed Feb  8 14:51:29 2023.
