 Entering Gaussian System, Link 0=/opt/cluster/programs/g16-c.01/g16/g16
 Input=/scratch/boittier/jobs/tmp.7261766/gaussian_95_water_ccsdt_atz.com
 Output=/scratch/boittier/jobs/tmp.7261766/gaussian_95_water_ccsdt_atz.out
 Initial command:
 /opt/cluster/programs/g16-c.01/g16/l1.exe "/scratch/boittier/jobs/tmp.7261766/Gau-102964.inp" -scrdir="/scratch/boittier/jobs/tmp.7261766/"
 Entering Link 1 = /opt/cluster/programs/g16-c.01/g16/l1.exe PID=    102965.
  
 Copyright (c) 1988-2019, Gaussian, Inc.  All Rights Reserved.
  
 This is part of the Gaussian(R) 16 program.  It is based on
 the Gaussian(R) 09 system (copyright 2009, Gaussian, Inc.),
 the Gaussian(R) 03 system (copyright 2003, Gaussian, Inc.),
 the Gaussian(R) 98 system (copyright 1998, Gaussian, Inc.),
 the Gaussian(R) 94 system (copyright 1995, Gaussian, Inc.),
 the Gaussian 92(TM) system (copyright 1992, Gaussian, Inc.),
 the Gaussian 90(TM) system (copyright 1990, Gaussian, Inc.),
 the Gaussian 88(TM) system (copyright 1988, Gaussian, Inc.),
 the Gaussian 86(TM) system (copyright 1986, Carnegie Mellon
 University), and the Gaussian 82(TM) system (copyright 1983,
 Carnegie Mellon University). Gaussian is a federally registered
 trademark of Gaussian, Inc.
  
 This software contains proprietary and confidential information,
 including trade secrets, belonging to Gaussian, Inc.
  
 This software is provided under written license and may be
 used, copied, transmitted, or stored only in accord with that
 written license.
  
 The following legend is applicable only to US Government
 contracts under FAR:
  
                    RESTRICTED RIGHTS LEGEND
  
 Use, reproduction and disclosure by the US Government is
 subject to restrictions as set forth in subparagraphs (a)
 and (c) of the Commercial Computer Software - Restricted
 Rights clause in FAR 52.227-19.
  
 Gaussian, Inc.
 340 Quinnipiac St., Bldg. 40, Wallingford CT 06492
  
  
 ---------------------------------------------------------------
 Warning -- This program may not be used in any manner that
 competes with the business of Gaussian, Inc. or will provide
 assistance to any competitor of Gaussian, Inc.  The licensee
 of this program is prohibited from giving any competitor of
 Gaussian, Inc. access to this program.  By using this program,
 the user acknowledges that Gaussian, Inc. is engaged in the
 business of creating and licensing software in the field of
 computational chemistry and represents and warrants to the
 licensee that it is not a competitor of Gaussian, Inc. and that
 it will not use this program in any manner prohibited above.
 ---------------------------------------------------------------
  

 Cite this work as:
 Gaussian 16, Revision C.01,
 M. J. Frisch, G. W. Trucks, H. B. Schlegel, G. E. Scuseria, 
 M. A. Robb, J. R. Cheeseman, G. Scalmani, V. Barone, 
 G. A. Petersson, H. Nakatsuji, X. Li, M. Caricato, A. V. Marenich, 
 J. Bloino, B. G. Janesko, R. Gomperts, B. Mennucci, H. P. Hratchian, 
 J. V. Ortiz, A. F. Izmaylov, J. L. Sonnenberg, D. Williams-Young, 
 F. Ding, F. Lipparini, F. Egidi, J. Goings, B. Peng, A. Petrone, 
 T. Henderson, D. Ranasinghe, V. G. Zakrzewski, J. Gao, N. Rega, 
 G. Zheng, W. Liang, M. Hada, M. Ehara, K. Toyota, R. Fukuda, 
 J. Hasegawa, M. Ishida, T. Nakajima, Y. Honda, O. Kitao, H. Nakai, 
 T. Vreven, K. Throssell, J. A. Montgomery, Jr., J. E. Peralta, 
 F. Ogliaro, M. J. Bearpark, J. J. Heyd, E. N. Brothers, K. N. Kudin, 
 V. N. Staroverov, T. A. Keith, R. Kobayashi, J. Normand, 
 K. Raghavachari, A. P. Rendell, J. C. Burant, S. S. Iyengar, 
 J. Tomasi, M. Cossi, J. M. Millam, M. Klene, C. Adamo, R. Cammi, 
 J. W. Ochterski, R. L. Martin, K. Morokuma, O. Farkas, 
 J. B. Foresman, and D. J. Fox, Gaussian, Inc., Wallingford CT, 2019.
 
 ******************************************
 Gaussian 16:  ES64L-G16RevC.01  3-Jul-2019
                 8-Feb-2023 
 ******************************************
 %nproc=4
 Will use up to    4 processors via shared memory.
 %mem=5760MB
 %chk=gaussian_95_water_ccsdt_atz.chk
 ----------------------------------------
 #P CCSD(T)/aug-cc-pVTZ scf(maxcycle=200)
 ----------------------------------------
 1/38=1,172=1/1;
 2/12=2,17=6,18=5,40=1/2;
 3/5=16,6=1,7=10,11=9,25=1,30=1/1,2,3;
 4//1;
 5/5=2,7=200,38=5/2;
 8/6=4,9=120000,10=1/1,4;
 9/5=7,14=2/13;
 6/7=2,8=2,9=2,10=2/1;
 99/5=1,9=1/99;
 Leave Link    1 at Wed Feb  8 13:53:04 2023, MaxMem=   754974720 cpu:               0.1 elap:               0.1
 (Enter /opt/cluster/programs/g16-c.01/g16/l101.exe)
 --------------
 Gaussian input
 --------------
 Symbolic Z-matrix:
 Charge =  0 Multiplicity = 1
 O                     0.        0.11751   0. 
 H                     0.75785  -0.47015   0. 
 H                    -0.84863  -0.32915   0. 
 
 ITRead=  0  0  0
 MicOpt= -1 -1 -1
 NAtoms=      3 NQM=        3 NQMF=       0 NMMI=      0 NMMIF=      0
                NMic=       0 NMicF=      0.
                    Isotopes and Nuclear Properties:
 (Nuclear quadrupole moments (NQMom) in fm**2, nuclear magnetic moments (NMagM)
  in nuclear magnetons)

  Atom         1           2           3
 IAtWgt=          16           1           1
 AtmWgt=  15.9949146   1.0078250   1.0078250
 NucSpn=           0           1           1
 AtZEff=  -0.0000000  -0.0000000  -0.0000000
 NQMom=    0.0000000   0.0000000   0.0000000
 NMagM=    0.0000000   2.7928460   2.7928460
 AtZNuc=   8.0000000   1.0000000   1.0000000
 Leave Link  101 at Wed Feb  8 13:53:04 2023, MaxMem=   754974720 cpu:               1.2 elap:               0.4
 (Enter /opt/cluster/programs/g16-c.01/g16/l202.exe)
                          Input orientation:                          
 ---------------------------------------------------------------------
 Center     Atomic      Atomic             Coordinates (Angstroms)
 Number     Number       Type             X           Y           Z
 ---------------------------------------------------------------------
      1          8           0        0.000000    0.117510    0.000000
      2          1           0        0.757850   -0.470150    0.000000
      3          1           0       -0.848634   -0.329146    0.000000
 ---------------------------------------------------------------------
                    Distance matrix (angstroms):
                    1          2          3
     1  O    0.000000
     2  H    0.959000   0.000000
     3  H    0.959000   1.612660   0.000000
 Stoichiometry    H2O
 Framework group  C2V[C2(O),SGV(H2)]
 Deg. of freedom     2
 Full point group                 C2V     NOp   4
 Largest Abelian subgroup         C2V     NOp   4
 Largest concise Abelian subgroup C2      NOp   2
                         Standard orientation:                         
 ---------------------------------------------------------------------
 Center     Atomic      Atomic             Coordinates (Angstroms)
 Number     Number       Type             X           Y           Z
 ---------------------------------------------------------------------
      1          8           0        0.000000   -0.000000    0.103829
      2          1           0        0.000000    0.806330   -0.415317
      3          1           0       -0.000000   -0.806330   -0.415317
 ---------------------------------------------------------------------
 Rotational constants (GHZ):        1047.5331577         385.6350119         281.8688485
 Leave Link  202 at Wed Feb  8 13:53:04 2023, MaxMem=   754974720 cpu:               0.2 elap:               0.1
 (Enter /opt/cluster/programs/g16-c.01/g16/l301.exe)
 Standard basis: Aug-CC-pVTZ (5D, 7F)
 Ernie: Thresh=  0.10000D-02 Tol=  0.10000D-05 Strict=F.
 Ernie:  3 primitive shells out of 52 were deleted.
 There are    42 symmetry adapted cartesian basis functions of A1  symmetry.
 There are    12 symmetry adapted cartesian basis functions of A2  symmetry.
 There are    20 symmetry adapted cartesian basis functions of B1  symmetry.
 There are    31 symmetry adapted cartesian basis functions of B2  symmetry.
 There are    35 symmetry adapted basis functions of A1  symmetry.
 There are    12 symmetry adapted basis functions of A2  symmetry.
 There are    18 symmetry adapted basis functions of B1  symmetry.
 There are    27 symmetry adapted basis functions of B2  symmetry.
    92 basis functions,   126 primitive gaussians,   105 cartesian basis functions
     5 alpha electrons        5 beta electrons
       nuclear repulsion energy         9.1569562327 Hartrees.
 IExCor=    0 DFT=F Ex=HF Corr=None ExCW=0 ScaHFX=  1.000000
 ScaDFX=  1.000000  1.000000  1.000000  1.000000 ScalE2=  1.000000  1.000000
 IRadAn=      5 IRanWt=     -1 IRanGd=            0 ICorTp=0 IEmpDi=  4
 NAtoms=    3 NActive=    3 NUniq=    2 SFac= 2.25D+00 NAtFMM=   60 NAOKFM=F Big=F
 Integral buffers will be    131072 words long.
 Raffenetti 1 integral format.
 Two-electron integral symmetry is turned on.
 Leave Link  301 at Wed Feb  8 13:53:04 2023, MaxMem=   754974720 cpu:               0.2 elap:               0.1
 (Enter /opt/cluster/programs/g16-c.01/g16/l302.exe)
 NPDir=0 NMtPBC=     1 NCelOv=     1 NCel=       1 NClECP=     1 NCelD=      1
         NCelK=      1 NCelE2=     1 NClLst=     1 CellRange=     0.0.
 One-electron integrals computed using PRISM.
 One-electron integral symmetry used in STVInt
 NBasis=    92 RedAO= T EigKep=  3.64D-04  NBF=    35    12    18    27
 NBsUse=    92 1.00D-06 EigRej= -1.00D+00 NBFU=    35    12    18    27
 Leave Link  302 at Wed Feb  8 13:53:05 2023, MaxMem=   754974720 cpu:               0.6 elap:               0.2
 (Enter /opt/cluster/programs/g16-c.01/g16/l303.exe)
 DipDrv:  MaxL=1.
 Leave Link  303 at Wed Feb  8 13:53:05 2023, MaxMem=   754974720 cpu:               0.6 elap:               0.3
 (Enter /opt/cluster/programs/g16-c.01/g16/l401.exe)
 ExpMin= 2.53D-02 ExpMax= 1.53D+04 ExpMxC= 5.22D+02 IAcc=3 IRadAn=         5 AccDes= 0.00D+00
 Harris functional with IExCor=  205 and IRadAn=       5 diagonalized for initial guess.
 HarFok:  IExCor=  205 AccDes= 0.00D+00 IRadAn=         5 IDoV= 1 UseB2=F ITyADJ=14
 ICtDFT=  3500011 ScaDFX=  1.000000  1.000000  1.000000  1.000000
 FoFCou: FMM=F IPFlag=           0 FMFlag=      100000 FMFlg1=           0
         NFxFlg=           0 DoJE=T BraDBF=F KetDBF=T FulRan=T
         wScrn=  0.000000 ICntrl=       500 IOpCl=  0 I1Cent=   200000004 NGrid=           0
         NMat0=    1 NMatS0=      1 NMatT0=    0 NMatD0=    1 NMtDS0=    0 NMtDT0=    0
 Petite list used in FoFCou.
 Harris En= -76.1531154394467    
 JPrj=0 DoOrth=F DoCkMO=F.
 Initial guess orbital symmetries:
       Occupied  (A1) (A1) (B2) (A1) (B1)
       Virtual   (A1) (B2) (A1) (B1) (A1) (B2) (B2) (A1) (A2) (A1)
                 (B1) (B2) (A1) (B2) (B2) (A1) (A1) (B1) (A2) (A1)
                 (A1) (B1) (B1) (B2) (A2) (B2) (A1) (B2) (A1) (B1)
                 (B2) (A1) (A2) (B2) (A2) (A1) (B1) (A1) (B2) (B2)
                 (A1) (B1) (A2) (A1) (A1) (B1) (B2) (A1) (B1) (B2)
                 (A1) (A2) (B2) (B2) (A1) (B1) (A2) (B2) (A1) (B1)
                 (B1) (A2) (B2) (A1) (A1) (B2) (B2) (A2) (A1) (B2)
                 (B1) (A1) (A1) (B2) (B1) (A1) (B1) (A1) (B1) (A2)
                 (A2) (B2) (A1) (B2) (A1) (B2) (A1)
 The electronic state of the initial guess is 1-A1.
 Leave Link  401 at Wed Feb  8 13:53:07 2023, MaxMem=   754974720 cpu:               3.9 elap:               2.0
 (Enter /opt/cluster/programs/g16-c.01/g16/l502.exe)
 Keep R1 ints in memory in symmetry-blocked form, NReq=11496777.
 FoFCou: FMM=F IPFlag=           0 FMFlag=           0 FMFlg1=           0
         NFxFlg=           0 DoJE=F BraDBF=F KetDBF=F FulRan=T
         wScrn=  0.000000 ICntrl=       600 IOpCl=  0 I1Cent=           0 NGrid=           0
         NMat0=    1 NMatS0=   4278 NMatT0=    0 NMatD0=    1 NMtDS0=    0 NMtDT0=    0
 Petite list used in FoFCou.
 Closed shell SCF:
 Using DIIS extrapolation, IDIIS=  1040.
 NGot=   754974720 LenX=   752607631 LenY=   752596165
 Requested convergence on RMS density matrix=1.00D-08 within 200 cycles.
 Requested convergence on MAX density matrix=1.00D-06.
 Requested convergence on             energy=1.00D-06.
 No special actions if energy rises.

 Cycle   1  Pass 1  IDiag  1:
 E= -75.9680045438843    
 DIIS: error= 6.40D-02 at cycle   1 NSaved=   1.
 NSaved= 1 IEnMin= 1 EnMin= -75.9680045438843     IErMin= 1 ErrMin= 6.40D-02
 ErrMax= 6.40D-02  0.00D+00 EMaxC= 1.00D-01 BMatC= 2.07D-01 BMatP= 2.07D-01
 IDIUse=3 WtCom= 3.60D-01 WtEn= 6.40D-01
 Coeff-Com:  0.100D+01
 Coeff-En:   0.100D+01
 Coeff:      0.100D+01
 Gap=     0.450 Goal=   None    Shift=    0.000
 GapD=    0.450 DampG=2.000 DampE=0.500 DampFc=1.0000 IDamp=-1.
 RMSDP=2.17D-03 MaxDP=4.94D-02              OVMax= 1.23D-01

 Cycle   2  Pass 1  IDiag  1:
 E= -76.0212769781445     Delta-E=       -0.053272434260 Rises=F Damp=F
 DIIS: error= 4.18D-02 at cycle   2 NSaved=   2.
 NSaved= 2 IEnMin= 2 EnMin= -76.0212769781445     IErMin= 2 ErrMin= 4.18D-02
 ErrMax= 4.18D-02  0.00D+00 EMaxC= 1.00D-01 BMatC= 6.04D-02 BMatP= 2.07D-01
 IDIUse=3 WtCom= 5.82D-01 WtEn= 4.18D-01
 Coeff-Com:  0.324D+00 0.676D+00
 Coeff-En:   0.200D+00 0.800D+00
 Coeff:      0.272D+00 0.728D+00
 Gap=     0.565 Goal=   None    Shift=    0.000
 RMSDP=1.30D-03 MaxDP=3.24D-02 DE=-5.33D-02 OVMax= 6.59D-02

 Cycle   3  Pass 1  IDiag  1:
 E= -76.0566968830442     Delta-E=       -0.035419904900 Rises=F Damp=F
 DIIS: error= 9.08D-03 at cycle   3 NSaved=   3.
 NSaved= 3 IEnMin= 3 EnMin= -76.0566968830442     IErMin= 3 ErrMin= 9.08D-03
 ErrMax= 9.08D-03  0.00D+00 EMaxC= 1.00D-01 BMatC= 3.05D-03 BMatP= 6.04D-02
 IDIUse=3 WtCom= 9.09D-01 WtEn= 9.08D-02
 Coeff-Com: -0.305D-01 0.153D+00 0.878D+00
 Coeff-En:   0.000D+00 0.000D+00 0.100D+01
 Coeff:     -0.278D-01 0.139D+00 0.889D+00
 Gap=     0.535 Goal=   None    Shift=    0.000
 RMSDP=2.25D-04 MaxDP=4.34D-03 DE=-3.54D-02 OVMax= 1.27D-02

 Cycle   4  Pass 1  IDiag  1:
 E= -76.0585809741365     Delta-E=       -0.001884091092 Rises=F Damp=F
 DIIS: error= 7.13D-04 at cycle   4 NSaved=   4.
 NSaved= 4 IEnMin= 4 EnMin= -76.0585809741365     IErMin= 4 ErrMin= 7.13D-04
 ErrMax= 7.13D-04  0.00D+00 EMaxC= 1.00D-01 BMatC= 1.54D-05 BMatP= 3.05D-03
 IDIUse=3 WtCom= 9.93D-01 WtEn= 7.13D-03
 Coeff-Com:  0.626D-02-0.541D-01-0.222D+00 0.127D+01
 Coeff-En:   0.000D+00 0.000D+00 0.000D+00 0.100D+01
 Coeff:      0.622D-02-0.537D-01-0.221D+00 0.127D+01
 Gap=     0.536 Goal=   None    Shift=    0.000
 RMSDP=3.73D-05 MaxDP=7.34D-04 DE=-1.88D-03 OVMax= 2.35D-03

 Cycle   5  Pass 1  IDiag  1:
 E= -76.0586051988566     Delta-E=       -0.000024224720 Rises=F Damp=F
 DIIS: error= 1.90D-04 at cycle   5 NSaved=   5.
 NSaved= 5 IEnMin= 5 EnMin= -76.0586051988566     IErMin= 5 ErrMin= 1.90D-04
 ErrMax= 1.90D-04  0.00D+00 EMaxC= 1.00D-01 BMatC= 7.05D-07 BMatP= 1.54D-05
 IDIUse=3 WtCom= 9.98D-01 WtEn= 1.90D-03
 Coeff-Com:  0.455D-03 0.142D-02 0.119D-03-0.279D+00 0.128D+01
 Coeff-En:   0.000D+00 0.000D+00 0.000D+00 0.000D+00 0.100D+01
 Coeff:      0.454D-03 0.142D-02 0.119D-03-0.278D+00 0.128D+01
 Gap=     0.537 Goal=   None    Shift=    0.000
 RMSDP=1.19D-05 MaxDP=2.30D-04 DE=-2.42D-05 OVMax= 8.12D-04

 Cycle   6  Pass 1  IDiag  1:
 E= -76.0586070137813     Delta-E=       -0.000001814925 Rises=F Damp=F
 DIIS: error= 2.97D-05 at cycle   6 NSaved=   6.
 NSaved= 6 IEnMin= 6 EnMin= -76.0586070137813     IErMin= 6 ErrMin= 2.97D-05
 ErrMax= 2.97D-05  0.00D+00 EMaxC= 1.00D-01 BMatC= 2.05D-08 BMatP= 7.05D-07
 IDIUse=1 WtCom= 1.00D+00 WtEn= 0.00D+00
 Coeff-Com: -0.286D-03 0.141D-02 0.637D-02 0.176D-01-0.313D+00 0.129D+01
 Coeff:     -0.286D-03 0.141D-02 0.637D-02 0.176D-01-0.313D+00 0.129D+01
 Gap=     0.537 Goal=   None    Shift=    0.000
 RMSDP=2.45D-06 MaxDP=5.86D-05 DE=-1.81D-06 OVMax= 1.76D-04

 Cycle   7  Pass 1  IDiag  1:
 E= -76.0586070790275     Delta-E=       -0.000000065246 Rises=F Damp=F
 DIIS: error= 5.16D-06 at cycle   7 NSaved=   7.
 NSaved= 7 IEnMin= 7 EnMin= -76.0586070790275     IErMin= 7 ErrMin= 5.16D-06
 ErrMax= 5.16D-06  0.00D+00 EMaxC= 1.00D-01 BMatC= 1.04D-09 BMatP= 2.05D-08
 IDIUse=1 WtCom= 1.00D+00 WtEn= 0.00D+00
 Coeff-Com:  0.296D-04-0.365D-03-0.144D-02 0.146D-01-0.141D-01-0.208D+00
 Coeff-Com:  0.121D+01
 Coeff:      0.296D-04-0.365D-03-0.144D-02 0.146D-01-0.141D-01-0.208D+00
 Coeff:      0.121D+01
 Gap=     0.537 Goal=   None    Shift=    0.000
 RMSDP=3.56D-07 MaxDP=9.08D-06 DE=-6.52D-08 OVMax= 3.25D-05

 Cycle   8  Pass 1  IDiag  1:
 E= -76.0586070814879     Delta-E=       -0.000000002460 Rises=F Damp=F
 DIIS: error= 1.34D-06 at cycle   8 NSaved=   8.
 NSaved= 8 IEnMin= 8 EnMin= -76.0586070814879     IErMin= 8 ErrMin= 1.34D-06
 ErrMax= 1.34D-06  0.00D+00 EMaxC= 1.00D-01 BMatC= 6.04D-11 BMatP= 1.04D-09
 IDIUse=1 WtCom= 1.00D+00 WtEn= 0.00D+00
 Coeff-Com:  0.817D-05 0.197D-04 0.811D-04-0.539D-02 0.212D-01-0.991D-02
 Coeff-Com: -0.373D+00 0.137D+01
 Coeff:      0.817D-05 0.197D-04 0.811D-04-0.539D-02 0.212D-01-0.991D-02
 Coeff:     -0.373D+00 0.137D+01
 Gap=     0.537 Goal=   None    Shift=    0.000
 RMSDP=1.14D-07 MaxDP=2.68D-06 DE=-2.46D-09 OVMax= 8.05D-06

 Cycle   9  Pass 1  IDiag  1:
 E= -76.0586070816411     Delta-E=       -0.000000000153 Rises=F Damp=F
 DIIS: error= 1.51D-07 at cycle   9 NSaved=   9.
 NSaved= 9 IEnMin= 9 EnMin= -76.0586070816411     IErMin= 9 ErrMin= 1.51D-07
 ErrMax= 1.51D-07  0.00D+00 EMaxC= 1.00D-01 BMatC= 6.12D-13 BMatP= 6.04D-11
 IDIUse=1 WtCom= 1.00D+00 WtEn= 0.00D+00
 Coeff-Com: -0.195D-05 0.116D-05 0.100D-06 0.838D-03-0.360D-02 0.402D-02
 Coeff-Com:  0.632D-01-0.307D+00 0.124D+01
 Coeff:     -0.195D-05 0.116D-05 0.100D-06 0.838D-03-0.360D-02 0.402D-02
 Coeff:      0.632D-01-0.307D+00 0.124D+01
 Gap=     0.537 Goal=   None    Shift=    0.000
 RMSDP=1.57D-08 MaxDP=3.52D-07 DE=-1.53D-10 OVMax= 6.78D-07

 Cycle  10  Pass 1  IDiag  1:
 E= -76.0586070816425     Delta-E=       -0.000000000001 Rises=F Damp=F
 DIIS: error= 2.98D-08 at cycle  10 NSaved=  10.
 NSaved=10 IEnMin=10 EnMin= -76.0586070816425     IErMin=10 ErrMin= 2.98D-08
 ErrMax= 2.98D-08  0.00D+00 EMaxC= 1.00D-01 BMatC= 2.19D-14 BMatP= 6.12D-13
 IDIUse=1 WtCom= 1.00D+00 WtEn= 0.00D+00
 Coeff-Com:  0.529D-06-0.861D-06-0.151D-05-0.193D-03 0.877D-03-0.146D-02
 Coeff-Com: -0.129D-01 0.754D-01-0.441D+00 0.138D+01
 Coeff:      0.529D-06-0.861D-06-0.151D-05-0.193D-03 0.877D-03-0.146D-02
 Coeff:     -0.129D-01 0.754D-01-0.441D+00 0.138D+01
 Gap=     0.537 Goal=   None    Shift=    0.000
 RMSDP=3.52D-09 MaxDP=7.26D-08 DE=-1.39D-12 OVMax= 1.36D-07

 SCF Done:  E(RHF) =  -76.0586070816     A.U. after   10 cycles
            NFock= 10  Conv=0.35D-08     -V/T= 2.0016
 KE= 7.593345652760D+01 PE=-1.989322909485D+02 EE= 3.778327110658D+01
 Leave Link  502 at Wed Feb  8 13:53:22 2023, MaxMem=   754974720 cpu:              30.7 elap:              15.4
 (Enter /opt/cluster/programs/g16-c.01/g16/l801.exe)
 Windowed orbitals will be sorted by symmetry type.
 ExpMin= 2.53D-02 ExpMax= 1.53D+04 ExpMxC= 5.22D+02 IAcc=3 IRadAn=         5 AccDes= 0.00D+00
 HarFok:  IExCor=  205 AccDes= 0.00D+00 IRadAn=         5 IDoV=-2 UseB2=F ITyADJ=14
 ICtDFT= 12500011 ScaDFX=  1.000000  1.000000  1.000000  1.000000
 Largest valence mixing into a core orbital is  1.10D-04
 Largest core mixing into a valence orbital is  1.72D-05
 Range of M.O.s used for correlation:     2    92
 NBasis=    92 NAE=     5 NBE=     5 NFC=     1 NFV=     0
 NROrb=     91 NOA=     4 NOB=     4 NVA=    87 NVB=    87

 **** Warning!!: The largest alpha MO coefficient is  0.15898626D+02

 Leave Link  801 at Wed Feb  8 13:53:22 2023, MaxMem=   754974720 cpu:               0.3 elap:               0.1
 (Enter /opt/cluster/programs/g16-c.01/g16/l804.exe)
 Closed-shell transformation, MDV=   754974720 ITran=4 ISComp=2.
 Unit  1 TFree=        277513 TCopy=        242092.
 Semi-Direct transformation.
 ModeAB=           4 MOrb=             4 LenV=     754589018
 LASXX=       368428 LTotXX=      368428 LenRXX=      751146
 LTotAB=      382718 MaxLAS=     1379560 LenRXY=           0
 NonZer=     1119574 LenScr=     2357760 LnRSAI=     1379560
 LnScr1=     2758656 LExtra=           0 Total=      7247122
 MaxDsk=          -1 SrtSym=           T ITran=            4
 DoSDTr:  NPSUse=  4
 JobTyp=0 Pass  1:  I=   1 to   4.
 (rs|ai) integrals will be sorted in core.
 Complete sort for first half transformation.
 First half transformation complete.
 Complete sort for second half transformation.
 Second half transformation complete.
 Spin components of T(2) and E(2):
     alpha-alpha T2 =       0.8103786898D-02 E2=     -0.3254045204D-01
     alpha-beta  T2 =       0.4703901526D-01 E2=     -0.2029133118D+00
     beta-beta   T2 =       0.8103786898D-02 E2=     -0.3254045204D-01
 ANorm=    0.1031138492D+01
 E2 =    -0.2679942158D+00 EUMP2 =    -0.76326601297487D+02
 Leave Link  804 at Wed Feb  8 13:53:31 2023, MaxMem=   754974720 cpu:              16.5 elap:               8.3
 (Enter /opt/cluster/programs/g16-c.01/g16/l913.exe)
 CIDS:  MDV=   754974720.
 Frozen-core window:  NFC=   1 NFV=   0.
 IFCWin=0 IBDFC=1 NFBD=     0     0 NFCmp=     0     0 NFFFC=     0     0
 Using DD3R+UMP44R for 1st iteration.
 Using DD4RQ for 2nd and later iterations.
 Keep R2 and R3 ints in memory in symmetry-blocked form, NReq=11500115.
 FoFCou: FMM=F IPFlag=           0 FMFlag=           0 FMFlg1=           0
         NFxFlg=           0 DoJE=F BraDBF=F KetDBF=F FulRan=T
         wScrn=  0.000000 ICntrl=       600 IOpCl=  0 I1Cent=           0 NGrid=           0
         NMat0=    1 NMatS0=   4278 NMatT0=    0 NMatD0=    1 NMtDS0=    0 NMtDT0=    0
 Petite list used in FoFCou.
 CIDS: In Core Option IDoMem=           1.
 CCSD(T)
 =======
 Iterations=  50 Convergence= 0.100D-06
 Produce multiple copies of IABC intergrals
 Iteration Nr.   1
 **********************
 DD1Dir will call FoFMem   1 times, MxPair=        20
 NAB=    10 NAA=     0 NBB=     0.
 MP4(R+Q)=  0.40284674D-02
 Maximum subspace dimension=  5
 A-vector RMS=  2.8364966D-03 Max=  1.2165792D-02 conv= 1.00D-05.
 RLE energy=       -0.2666513283
 E3=       -0.27199347D-02        EUMP3=      -0.76329321232D+02
 E4(DQ)=   -0.61558813D-03        UMP4(DQ)=   -0.76329936820D+02
 E4(SDQ)=  -0.24689312D-02        UMP4(SDQ)=  -0.76331790163D+02
 VARIATIONAL ENERGIES WITH THE FIRST-ORDER WAVEFUNCTION:
 DE(Corr)= -0.26664457     E(Corr)=     -76.325251653    
 NORM(A)=   0.10309716D+01
 Iteration Nr.   2
 **********************
 DD1Dir will call FoFMem   1 times, MxPair=        20
 NAB=    10 NAA=     0 NBB=     0.
 A-vector RMS=  3.0433821D-04 Max=  2.1880529D-03 conv= 1.00D-05.
 RLE energy=       -0.2723604642
 DE(Corr)= -0.27197851     E(CORR)=     -76.330585596     Delta=-5.33D-03
 NORM(A)=   0.10330536D+01
 Iteration Nr.   3
 **********************
 DD1Dir will call FoFMem   1 times, MxPair=        20
 NAB=    10 NAA=     0 NBB=     0.
 A-vector RMS=  3.9728184D-04 Max=  2.2443417D-03 conv= 1.00D-05.
 RLE energy=       -0.2726652762
 DE(Corr)= -0.27229958     E(CORR)=     -76.330906663     Delta=-3.21D-04
 NORM(A)=   0.10334569D+01
 Iteration Nr.   4
 **********************
 DD1Dir will call FoFMem   1 times, MxPair=        20
 NAB=    10 NAA=     0 NBB=     0.
 A-vector RMS=  6.0323428D-05 Max=  3.7879124D-04 conv= 1.00D-05.
 RLE energy=       -0.2726971533
 DE(Corr)= -0.27266990     E(CORR)=     -76.331276983     Delta=-3.70D-04
 NORM(A)=   0.10335656D+01
 Iteration Nr.   5
 **********************
 DD1Dir will call FoFMem   1 times, MxPair=        20
 NAB=    10 NAA=     0 NBB=     0.
 A-vector RMS=  3.0306772D-05 Max=  1.9217821D-04 conv= 1.00D-05.
 RLE energy=       -0.2727088439
 DE(Corr)= -0.27270364     E(CORR)=     -76.331310725     Delta=-3.37D-05
 NORM(A)=   0.10335878D+01
 Iteration Nr.   6
 **********************
 DD1Dir will call FoFMem   1 times, MxPair=        20
 NAB=    10 NAA=     0 NBB=     0.
 A-vector RMS=  7.0927130D-06 Max=  3.9763248D-05 conv= 1.00D-05.
 RLE energy=       -0.2727053356
 DE(Corr)= -0.27270625     E(CORR)=     -76.331313329     Delta=-2.60D-06
 NORM(A)=   0.10335897D+01
 Iteration Nr.   7
 **********************
 DD1Dir will call FoFMem   1 times, MxPair=        20
 NAB=    10 NAA=     0 NBB=     0.
 A-vector RMS=  2.6363160D-06 Max=  1.3685747D-05 conv= 1.00D-05.
 RLE energy=       -0.2727053280
 DE(Corr)= -0.27270624     E(CORR)=     -76.331313322     Delta= 7.04D-09
 NORM(A)=   0.10335904D+01
 Iteration Nr.   8
 **********************
 DD1Dir will call FoFMem   1 times, MxPair=        20
 NAB=    10 NAA=     0 NBB=     0.
 A-vector RMS=  9.8478258D-07 Max=  4.7610160D-06 conv= 1.00D-05.
 RLE energy=       -0.2727058882
 DE(Corr)= -0.27270600     E(CORR)=     -76.331313079     Delta= 2.43D-07
 NORM(A)=   0.10335908D+01
 Iteration Nr.   9
 **********************
 DD1Dir will call FoFMem   1 times, MxPair=        20
 NAB=    10 NAA=     0 NBB=     0.
 A-vector RMS=  2.9162007D-07 Max=  1.6830750D-06 conv= 1.00D-05.
 RLE energy=       -0.2727059943
 DE(Corr)= -0.27270601     E(CORR)=     -76.331313092     Delta=-1.32D-08
 NORM(A)=   0.10335909D+01
 CI/CC converged in    9 iterations to DelEn=-1.32D-08 Conv= 1.00D-07 ErrA1= 2.92D-07 Conv= 1.00D-05
 Wavefunction amplitudes converged. E(Corr)=     -76.331313092    
 Largest amplitude= 2.08D-02
 IPart=  4 IA=    6   11.23% done.
 IPart=  1 IA=   11   21.79% done.
 IPart=  4 IA=   16   31.68% done.
 IPart=  1 IA=   21   40.90% done.
 IPart=  3 IA=   27   51.08% done.
 IPart=  1 IA=   33   60.30% done.
 IPart=  4 IA=   41   71.10% done.
 IPart=  1 IA=   49   80.19% done.
 IPart=  1 IA=   61   90.62% done.
 Time for triples=        6.81 seconds.
 T4(CCSD)= -0.89212207D-02
 T5(CCSD)=  0.31719110D-03
 CCSD(T)= -0.76339917121D+02
 Discarding MO integrals.
 Leave Link  913 at Wed Feb  8 13:54:33 2023, MaxMem=   754974720 cpu:             124.5 elap:              62.3
 (Enter /opt/cluster/programs/g16-c.01/g16/l601.exe)
 Copying SCF densities to generalized density rwf, IOpCl= 0 IROHF=0.

 **********************************************************************

            Population analysis using the SCF Density.

 **********************************************************************

 Orbital symmetries:
       Occupied  (A1) (A1) (B2) (A1) (B1)
       Virtual   (A1) (B2) (A1) (B1) (A1) (B2) (B2) (A1) (A2) (B1)
                 (A1) (B2) (A1) (B2) (B2) (A1) (A1) (A2) (B1) (A1)
                 (B1) (A1) (B2) (A2) (B2) (B1) (A1) (A1) (B2) (B1)
                 (B2) (A2) (A1) (B2) (A2) (A1) (B1) (B2) (A1) (B2)
                 (A1) (B1) (A1) (A2) (B1) (A1) (B2) (A1) (B2) (B1)
                 (A1) (A2) (B2) (B2) (A1) (A2) (B1) (B2) (A1) (B1)
                 (B1) (A2) (B2) (A1) (A1) (B2) (B2) (A2) (A1) (B2)
                 (B1) (A1) (A1) (B2) (B1) (A1) (B1) (A1) (A2) (B1)
                 (A2) (B2) (A1) (B2) (A1) (B2) (A1)
 The electronic state is 1-A1.
 Alpha  occ. eigenvalues --  -20.56284  -1.34587  -0.73479  -0.56548  -0.50717
 Alpha virt. eigenvalues --    0.02998   0.04708   0.13720   0.15688   0.17249
 Alpha virt. eigenvalues --    0.18068   0.23065   0.24329   0.26166   0.31130
 Alpha virt. eigenvalues --    0.31807   0.36433   0.43641   0.46631   0.60647
 Alpha virt. eigenvalues --    0.64719   0.71371   0.71482   0.72843   0.82387
 Alpha virt. eigenvalues --    0.84250   0.88969   0.91052   0.91644   0.92572
 Alpha virt. eigenvalues --    0.93286   0.98607   1.02280   1.04529   1.08805
 Alpha virt. eigenvalues --    1.12413   1.16493   1.17037   1.26396   1.52204
 Alpha virt. eigenvalues --    1.59678   1.60978   1.72546   1.79047   2.02535
 Alpha virt. eigenvalues --    2.11381   2.25252   2.31318   2.32244   2.39280
 Alpha virt. eigenvalues --    2.39867   2.42999   2.46029   2.70824   2.71708
 Alpha virt. eigenvalues --    2.77156   2.87532   2.91729   3.62444   3.78404
 Alpha virt. eigenvalues --    4.00215   4.09025   4.20281   4.23955   4.37598
 Alpha virt. eigenvalues --    4.38670   4.39072   4.44770   4.50144   4.66694
 Alpha virt. eigenvalues --    4.73381   5.12533   5.19308   5.30031   5.38160
 Alpha virt. eigenvalues --    5.48513   5.78598   6.04790   6.55659   6.69755
 Alpha virt. eigenvalues --    6.78993   7.14897   7.24496   7.26616   7.26916
 Alpha virt. eigenvalues --    7.37315   7.48786   7.57406   7.81897   8.02199
 Alpha virt. eigenvalues --    8.73080  15.90515
          Condensed to atoms (all electrons):
               1          2          3
     1  O    7.888079   0.277752   0.277752
     2  H    0.277752   0.486076   0.014381
     3  H    0.277752   0.014381   0.486076
 Mulliken charges:
               1
     1  O   -0.443583
     2  H    0.221792
     3  H    0.221792
 Sum of Mulliken charges =   0.00000
 Mulliken charges with hydrogens summed into heavy atoms:
               1
     1  O    0.000000
 Electronic spatial extent (au):  <R**2>=             19.5173
 Charge=              0.0000 electrons
 Dipole moment (field-independent basis, Debye):
    X=             -0.0000    Y=             -0.0000    Z=             -1.8113  Tot=              1.8113
 Quadrupole moment (field-independent basis, Debye-Ang):
   XX=             -7.5811   YY=             -3.8089   ZZ=             -6.5445
   XY=              0.0000   XZ=              0.0000   YZ=             -0.0000
 Traceless Quadrupole moment (field-independent basis, Debye-Ang):
   XX=             -1.6029   YY=              2.1693   ZZ=             -0.5663
   XY=              0.0000   XZ=              0.0000   YZ=             -0.0000
 Octapole moment (field-independent basis, Debye-Ang**2):
  XXX=              0.0000  YYY=              0.0000  ZZZ=             -0.9491  XYY=             -0.0000
  XXY=             -0.0000  XXZ=             -0.2318  XZZ=              0.0000  YZZ=              0.0000
  YYZ=             -1.4102  XYZ=             -0.0000
 Hexadecapole moment (field-independent basis, Debye-Ang**3):
 XXXX=             -6.7934 YYYY=             -5.5977 ZZZZ=             -7.2333 XXXY=             -0.0000
 XXXZ=             -0.0000 YYYX=              0.0000 YYYZ=              0.0000 ZZZX=             -0.0000
 ZZZY=              0.0000 XXYY=             -2.5000 XXZZ=             -2.3675 YYZZ=             -1.9573
 XXYZ=             -0.0000 YYXZ=              0.0000 ZZXY=             -0.0000
 N-N= 9.156956232691D+00 E-N=-1.989322909712D+02  KE= 7.593345652760D+01
 Symmetry A1   KE= 6.793584326415D+01
 Symmetry A2   KE= 6.655111088346D-20
 Symmetry B1   KE= 4.454537238441D+00
 Symmetry B2   KE= 3.543076025015D+00
 Leave Link  601 at Wed Feb  8 13:54:33 2023, MaxMem=   754974720 cpu:               0.6 elap:               0.2
 (Enter /opt/cluster/programs/g16-c.01/g16/l9999.exe)
 Unable to Open any file for archive entry.
 1\1\GINC-NODE64\SP\RCCSD(T)-FC\Aug-CC-pVTZ\H2O1\BOITTIER\08-Feb-2023\0
 \\#P CCSD(T)/aug-cc-pVTZ scf(maxcycle=200)\\Gaussian input\\0,1\O,0,0.
 ,0.11751,0.\H,0,0.7578497316,-0.4701504329,0.\H,0,-0.8486339394,-0.329
 1458372,0.\\Version=ES64L-G16RevC.01\State=1-A1\HF=-76.0586071\MP2=-76
 .3266013\MP3=-76.3293212\MP4D=-76.3339653\MP4DQ=-76.3299368\MP4SDQ=-76
 .3317902\CCSD=-76.3313131\CCSD(T)=-76.3399171\RMSD=3.520e-09\PG=C02V [
 C2(O1),SGV(H2)]\\@
 The archive entry for this job was punched.


 NOTHING RESEMBLES A NEW PHENOMENON AS MUCH AS A MISTAKE.

                               -- ENRICO FERMI (?)
 Job cpu time:       0 days  0 hours  2 minutes 59.8 seconds.
 Elapsed time:       0 days  0 hours  1 minutes 29.4 seconds.
 File lengths (MBytes):  RWF=     64 Int=      0 D2E=      0 Chk=      2 Scr=      1
 Normal termination of Gaussian 16 at Wed Feb  8 13:54:33 2023.
