 Entering Gaussian System, Link 0=/opt/cluster/programs/g16-c.01/g16/g16
 Input=/scratch/boittier/jobs/tmp.7262369/gaussian_156_water_ccsdt_adz.com
 Output=/scratch/boittier/jobs/tmp.7262369/gaussian_156_water_ccsdt_adz.out
 Initial command:
 /opt/cluster/programs/g16-c.01/g16/l1.exe "/scratch/boittier/jobs/tmp.7262369/Gau-167512.inp" -scrdir="/scratch/boittier/jobs/tmp.7262369/"
 Entering Link 1 = /opt/cluster/programs/g16-c.01/g16/l1.exe PID=    167513.
  
 Copyright (c) 1988-2019, Gaussian, Inc.  All Rights Reserved.
  
 This is part of the Gaussian(R) 16 program.  It is based on
 the Gaussian(R) 09 system (copyright 2009, Gaussian, Inc.),
 the Gaussian(R) 03 system (copyright 2003, Gaussian, Inc.),
 the Gaussian(R) 98 system (copyright 1998, Gaussian, Inc.),
 the Gaussian(R) 94 system (copyright 1995, Gaussian, Inc.),
 the Gaussian 92(TM) system (copyright 1992, Gaussian, Inc.),
 the Gaussian 90(TM) system (copyright 1990, Gaussian, Inc.),
 the Gaussian 88(TM) system (copyright 1988, Gaussian, Inc.),
 the Gaussian 86(TM) system (copyright 1986, Carnegie Mellon
 University), and the Gaussian 82(TM) system (copyright 1983,
 Carnegie Mellon University). Gaussian is a federally registered
 trademark of Gaussian, Inc.
  
 This software contains proprietary and confidential information,
 including trade secrets, belonging to Gaussian, Inc.
  
 This software is provided under written license and may be
 used, copied, transmitted, or stored only in accord with that
 written license.
  
 The following legend is applicable only to US Government
 contracts under FAR:
  
                    RESTRICTED RIGHTS LEGEND
  
 Use, reproduction and disclosure by the US Government is
 subject to restrictions as set forth in subparagraphs (a)
 and (c) of the Commercial Computer Software - Restricted
 Rights clause in FAR 52.227-19.
  
 Gaussian, Inc.
 340 Quinnipiac St., Bldg. 40, Wallingford CT 06492
  
  
 ---------------------------------------------------------------
 Warning -- This program may not be used in any manner that
 competes with the business of Gaussian, Inc. or will provide
 assistance to any competitor of Gaussian, Inc.  The licensee
 of this program is prohibited from giving any competitor of
 Gaussian, Inc. access to this program.  By using this program,
 the user acknowledges that Gaussian, Inc. is engaged in the
 business of creating and licensing software in the field of
 computational chemistry and represents and warrants to the
 licensee that it is not a competitor of Gaussian, Inc. and that
 it will not use this program in any manner prohibited above.
 ---------------------------------------------------------------
  

 Cite this work as:
 Gaussian 16, Revision C.01,
 M. J. Frisch, G. W. Trucks, H. B. Schlegel, G. E. Scuseria, 
 M. A. Robb, J. R. Cheeseman, G. Scalmani, V. Barone, 
 G. A. Petersson, H. Nakatsuji, X. Li, M. Caricato, A. V. Marenich, 
 J. Bloino, B. G. Janesko, R. Gomperts, B. Mennucci, H. P. Hratchian, 
 J. V. Ortiz, A. F. Izmaylov, J. L. Sonnenberg, D. Williams-Young, 
 F. Ding, F. Lipparini, F. Egidi, J. Goings, B. Peng, A. Petrone, 
 T. Henderson, D. Ranasinghe, V. G. Zakrzewski, J. Gao, N. Rega, 
 G. Zheng, W. Liang, M. Hada, M. Ehara, K. Toyota, R. Fukuda, 
 J. Hasegawa, M. Ishida, T. Nakajima, Y. Honda, O. Kitao, H. Nakai, 
 T. Vreven, K. Throssell, J. A. Montgomery, Jr., J. E. Peralta, 
 F. Ogliaro, M. J. Bearpark, J. J. Heyd, E. N. Brothers, K. N. Kudin, 
 V. N. Staroverov, T. A. Keith, R. Kobayashi, J. Normand, 
 K. Raghavachari, A. P. Rendell, J. C. Burant, S. S. Iyengar, 
 J. Tomasi, M. Cossi, J. M. Millam, M. Klene, C. Adamo, R. Cammi, 
 J. W. Ochterski, R. L. Martin, K. Morokuma, O. Farkas, 
 J. B. Foresman, and D. J. Fox, Gaussian, Inc., Wallingford CT, 2019.
 
 ******************************************
 Gaussian 16:  ES64L-G16RevC.01  3-Jul-2019
                 8-Feb-2023 
 ******************************************
 %nproc=4
 Will use up to    4 processors via shared memory.
 %mem=5760MB
 %chk=gaussian_156_water_ccsdt_adz.chk
 ----------------------------------------
 #P CCSD(T)/aug-cc-pVDZ scf(maxcycle=200)
 ----------------------------------------
 1/38=1,172=1/1;
 2/12=2,17=6,18=5,40=1/2;
 3/5=16,7=10,11=9,25=1,30=1/1,2,3;
 4//1;
 5/5=2,7=200,38=5/2;
 8/6=4,9=120000,10=1/1,4;
 9/5=7,14=2/13;
 6/7=2,8=2,9=2,10=2/1;
 99/5=1,9=1/99;
 Leave Link    1 at Wed Feb  8 14:50:49 2023, MaxMem=   754974720 cpu:               0.2 elap:               0.1
 (Enter /opt/cluster/programs/g16-c.01/g16/l101.exe)
 --------------
 Gaussian input
 --------------
 Symbolic Z-matrix:
 Charge =  0 Multiplicity = 1
 O                     0.        0.11751   0. 
 H                     0.79736  -0.50079   0. 
 H                    -0.86371  -0.29926   0. 
 
 ITRead=  0  0  0
 MicOpt= -1 -1 -1
 NAtoms=      3 NQM=        3 NQMF=       0 NMMI=      0 NMMIF=      0
                NMic=       0 NMicF=      0.
                    Isotopes and Nuclear Properties:
 (Nuclear quadrupole moments (NQMom) in fm**2, nuclear magnetic moments (NMagM)
  in nuclear magnetons)

  Atom         1           2           3
 IAtWgt=          16           1           1
 AtmWgt=  15.9949146   1.0078250   1.0078250
 NucSpn=           0           1           1
 AtZEff=  -0.0000000  -0.0000000  -0.0000000
 NQMom=    0.0000000   0.0000000   0.0000000
 NMagM=    0.0000000   2.7928460   2.7928460
 AtZNuc=   8.0000000   1.0000000   1.0000000
 Leave Link  101 at Wed Feb  8 14:50:49 2023, MaxMem=   754974720 cpu:               0.5 elap:               0.2
 (Enter /opt/cluster/programs/g16-c.01/g16/l202.exe)
                          Input orientation:                          
 ---------------------------------------------------------------------
 Center     Atomic      Atomic             Coordinates (Angstroms)
 Number     Number       Type             X           Y           Z
 ---------------------------------------------------------------------
      1          8           0        0.000000    0.117510    0.000000
      2          1           0        0.797362   -0.500790    0.000000
      3          1           0       -0.863705   -0.299257    0.000000
 ---------------------------------------------------------------------
                    Distance matrix (angstroms):
                    1          2          3
     1  O    0.000000
     2  H    1.009000   0.000000
     3  H    0.959000   1.673248   0.000000
 Stoichiometry    H2O
 Framework group  CS[SG(H2O)]
 Deg. of freedom     3
 Full point group                 CS      NOp   2
 Largest Abelian subgroup         CS      NOp   2
 Largest concise Abelian subgroup C1      NOp   1
                         Standard orientation:                         
 ---------------------------------------------------------------------
 Center     Atomic      Atomic             Coordinates (Angstroms)
 Number     Number       Type             X           Y           Z
 ---------------------------------------------------------------------
      1          8           0        0.000000    0.103719    0.000000
      2          1           0        0.835278   -0.462312   -0.000000
      3          1           0       -0.835278   -0.367440    0.000000
 ---------------------------------------------------------------------
 Rotational constants (GHZ):        1054.8959364         357.6189123         267.0773604
 Leave Link  202 at Wed Feb  8 14:50:49 2023, MaxMem=   754974720 cpu:               0.1 elap:               0.0
 (Enter /opt/cluster/programs/g16-c.01/g16/l301.exe)
 Standard basis: Aug-CC-pVDZ (5D, 7F)
 Ernie: Thresh=  0.10000D-02 Tol=  0.10000D-05 Strict=F.
 Ernie:  2 primitive shells out of 39 were deleted.
 There are    32 symmetry adapted cartesian basis functions of A'  symmetry.
 There are    11 symmetry adapted cartesian basis functions of A"  symmetry.
 There are    30 symmetry adapted basis functions of A'  symmetry.
 There are    11 symmetry adapted basis functions of A"  symmetry.
    41 basis functions,    65 primitive gaussians,    43 cartesian basis functions
     5 alpha electrons        5 beta electrons
       nuclear repulsion energy         8.9263226376 Hartrees.
 IExCor=    0 DFT=F Ex=HF Corr=None ExCW=0 ScaHFX=  1.000000
 ScaDFX=  1.000000  1.000000  1.000000  1.000000 ScalE2=  1.000000  1.000000
 IRadAn=      5 IRanWt=     -1 IRanGd=            0 ICorTp=0 IEmpDi=  4
 NAtoms=    3 NActive=    3 NUniq=    3 SFac= 1.00D+00 NAtFMM=   60 NAOKFM=F Big=F
 Integral buffers will be    131072 words long.
 Raffenetti 1 integral format.
 Two-electron integral symmetry is turned on.
 Leave Link  301 at Wed Feb  8 14:50:49 2023, MaxMem=   754974720 cpu:               0.2 elap:               0.0
 (Enter /opt/cluster/programs/g16-c.01/g16/l302.exe)
 NPDir=0 NMtPBC=     1 NCelOv=     1 NCel=       1 NClECP=     1 NCelD=      1
         NCelK=      1 NCelE2=     1 NClLst=     1 CellRange=     0.0.
 One-electron integrals computed using PRISM.
 One-electron integral symmetry used in STVInt
 NBasis=    41 RedAO= T EigKep=  3.04D-03  NBF=    30    11
 NBsUse=    41 1.00D-06 EigRej= -1.00D+00 NBFU=    30    11
 Leave Link  302 at Wed Feb  8 14:50:50 2023, MaxMem=   754974720 cpu:               1.1 elap:               0.6
 (Enter /opt/cluster/programs/g16-c.01/g16/l303.exe)
 DipDrv:  MaxL=1.
 Leave Link  303 at Wed Feb  8 14:50:50 2023, MaxMem=   754974720 cpu:               0.1 elap:               0.0
 (Enter /opt/cluster/programs/g16-c.01/g16/l401.exe)
 ExpMin= 2.97D-02 ExpMax= 1.17D+04 ExpMxC= 4.01D+02 IAcc=3 IRadAn=         5 AccDes= 0.00D+00
 Harris functional with IExCor=  205 and IRadAn=       5 diagonalized for initial guess.
 HarFok:  IExCor=  205 AccDes= 0.00D+00 IRadAn=         5 IDoV= 1 UseB2=F ITyADJ=14
 ICtDFT=  3500011 ScaDFX=  1.000000  1.000000  1.000000  1.000000
 FoFCou: FMM=F IPFlag=           0 FMFlag=      100000 FMFlg1=           0
         NFxFlg=           0 DoJE=T BraDBF=F KetDBF=T FulRan=T
         wScrn=  0.000000 ICntrl=       500 IOpCl=  0 I1Cent=   200000004 NGrid=           0
         NMat0=    1 NMatS0=      1 NMatT0=    0 NMatD0=    1 NMtDS0=    0 NMtDT0=    0
 Petite list used in FoFCou.
 Harris En= -76.1207515646659    
 JPrj=0 DoOrth=F DoCkMO=F.
 Initial guess orbital symmetries:
       Occupied  (A') (A') (A') (A') (A")
       Virtual   (A') (A') (A') (A") (A') (A') (A') (A') (A") (A')
                 (A") (A') (A') (A') (A') (A') (A") (A') (A") (A')
                 (A") (A') (A') (A') (A") (A") (A') (A') (A') (A')
                 (A') (A") (A') (A") (A') (A')
 The electronic state of the initial guess is 1-A'.
 Leave Link  401 at Wed Feb  8 14:50:50 2023, MaxMem=   754974720 cpu:               1.4 elap:               0.7
 (Enter /opt/cluster/programs/g16-c.01/g16/l502.exe)
 Keep R1 ints in memory in symmetry-blocked form, NReq=1210668.
 FoFCou: FMM=F IPFlag=           0 FMFlag=           0 FMFlg1=           0
         NFxFlg=           0 DoJE=F BraDBF=F KetDBF=F FulRan=T
         wScrn=  0.000000 ICntrl=       600 IOpCl=  0 I1Cent=           0 NGrid=           0
         NMat0=    1 NMatS0=    861 NMatT0=    0 NMatD0=    1 NMtDS0=    0 NMtDT0=    0
 Petite list used in FoFCou.
 Closed shell SCF:
 Using DIIS extrapolation, IDIIS=  1040.
 NGot=   754974720 LenX=   754771907 LenY=   754769617
 Requested convergence on RMS density matrix=1.00D-08 within 200 cycles.
 Requested convergence on MAX density matrix=1.00D-06.
 Requested convergence on             energy=1.00D-06.
 No special actions if energy rises.

 Cycle   1  Pass 1  IDiag  1:
 E= -75.9585625745516    
 DIIS: error= 5.06D-02 at cycle   1 NSaved=   1.
 NSaved= 1 IEnMin= 1 EnMin= -75.9585625745516     IErMin= 1 ErrMin= 5.06D-02
 ErrMax= 5.06D-02  0.00D+00 EMaxC= 1.00D-01 BMatC= 1.15D-01 BMatP= 1.15D-01
 IDIUse=3 WtCom= 4.94D-01 WtEn= 5.06D-01
 Coeff-Com:  0.100D+01
 Coeff-En:   0.100D+01
 Coeff:      0.100D+01
 Gap=     0.458 Goal=   None    Shift=    0.000
 GapD=    0.458 DampG=2.000 DampE=0.500 DampFc=1.0000 IDamp=-1.
 RMSDP=6.20D-03 MaxDP=1.16D-01              OVMax= 1.19D-01

 Cycle   2  Pass 1  IDiag  1:
 E= -76.0013572505566     Delta-E=       -0.042794676005 Rises=F Damp=F
 DIIS: error= 4.04D-02 at cycle   2 NSaved=   2.
 NSaved= 2 IEnMin= 2 EnMin= -76.0013572505566     IErMin= 2 ErrMin= 4.04D-02
 ErrMax= 4.04D-02  0.00D+00 EMaxC= 1.00D-01 BMatC= 4.59D-02 BMatP= 1.15D-01
 IDIUse=3 WtCom= 5.96D-01 WtEn= 4.04D-01
 Coeff-Com:  0.377D+00 0.623D+00
 Coeff-En:   0.224D+00 0.776D+00
 Coeff:      0.315D+00 0.685D+00
 Gap=     0.556 Goal=   None    Shift=    0.000
 RMSDP=2.93D-03 MaxDP=5.46D-02 DE=-4.28D-02 OVMax= 5.94D-02

 Cycle   3  Pass 1  IDiag  1:
 E= -76.0331778849539     Delta-E=       -0.031820634397 Rises=F Damp=F
 DIIS: error= 4.63D-03 at cycle   3 NSaved=   3.
 NSaved= 3 IEnMin= 3 EnMin= -76.0331778849539     IErMin= 3 ErrMin= 4.63D-03
 ErrMax= 4.63D-03  0.00D+00 EMaxC= 1.00D-01 BMatC= 1.13D-03 BMatP= 4.59D-02
 IDIUse=3 WtCom= 9.54D-01 WtEn= 4.63D-02
 Coeff-Com: -0.376D-01 0.917D-01 0.946D+00
 Coeff-En:   0.000D+00 0.000D+00 0.100D+01
 Coeff:     -0.359D-01 0.875D-01 0.948D+00
 Gap=     0.538 Goal=   None    Shift=    0.000
 RMSDP=4.70D-04 MaxDP=8.11D-03 DE=-3.18D-02 OVMax= 9.25D-03

 Cycle   4  Pass 1  IDiag  1:
 E= -76.0340515470718     Delta-E=       -0.000873662118 Rises=F Damp=F
 DIIS: error= 6.58D-04 at cycle   4 NSaved=   4.
 NSaved= 4 IEnMin= 4 EnMin= -76.0340515470718     IErMin= 4 ErrMin= 6.58D-04
 ErrMax= 6.58D-04  0.00D+00 EMaxC= 1.00D-01 BMatC= 8.31D-06 BMatP= 1.13D-03
 IDIUse=3 WtCom= 9.93D-01 WtEn= 6.58D-03
 Coeff-Com:  0.840D-02-0.428D-01-0.324D+00 0.136D+01
 Coeff-En:   0.000D+00 0.000D+00 0.000D+00 0.100D+01
 Coeff:      0.834D-02-0.425D-01-0.322D+00 0.136D+01
 Gap=     0.539 Goal=   None    Shift=    0.000
 RMSDP=1.23D-04 MaxDP=1.21D-03 DE=-8.74D-04 OVMax= 2.52D-03

 Cycle   5  Pass 1  IDiag  1:
 E= -76.0340728016174     Delta-E=       -0.000021254546 Rises=F Damp=F
 DIIS: error= 1.85D-04 at cycle   5 NSaved=   5.
 NSaved= 5 IEnMin= 5 EnMin= -76.0340728016174     IErMin= 5 ErrMin= 1.85D-04
 ErrMax= 1.85D-04  0.00D+00 EMaxC= 1.00D-01 BMatC= 4.03D-07 BMatP= 8.31D-06
 IDIUse=3 WtCom= 9.98D-01 WtEn= 1.85D-03
 Coeff-Com:  0.312D-03 0.231D-02 0.133D-01-0.263D+00 0.125D+01
 Coeff-En:   0.000D+00 0.000D+00 0.000D+00 0.000D+00 0.100D+01
 Coeff:      0.312D-03 0.230D-02 0.133D-01-0.262D+00 0.125D+01
 Gap=     0.539 Goal=   None    Shift=    0.000
 RMSDP=3.16D-05 MaxDP=4.15D-04 DE=-2.13D-05 OVMax= 7.22D-04

 Cycle   6  Pass 1  IDiag  1:
 E= -76.0340741026454     Delta-E=       -0.000001301028 Rises=F Damp=F
 DIIS: error= 3.81D-05 at cycle   6 NSaved=   6.
 NSaved= 6 IEnMin= 6 EnMin= -76.0340741026454     IErMin= 6 ErrMin= 3.81D-05
 ErrMax= 3.81D-05  0.00D+00 EMaxC= 1.00D-01 BMatC= 1.74D-08 BMatP= 4.03D-07
 IDIUse=1 WtCom= 1.00D+00 WtEn= 0.00D+00
 Coeff-Com: -0.429D-03 0.155D-02 0.128D-01-0.198D-01-0.248D+00 0.125D+01
 Coeff:     -0.429D-03 0.155D-02 0.128D-01-0.198D-01-0.248D+00 0.125D+01
 Gap=     0.539 Goal=   None    Shift=    0.000
 RMSDP=6.06D-06 MaxDP=1.06D-04 DE=-1.30D-06 OVMax= 1.69D-04

 Cycle   7  Pass 1  IDiag  1:
 E= -76.0340741609108     Delta-E=       -0.000000058265 Rises=F Damp=F
 DIIS: error= 8.04D-06 at cycle   7 NSaved=   7.
 NSaved= 7 IEnMin= 7 EnMin= -76.0340741609108     IErMin= 7 ErrMin= 8.04D-06
 ErrMax= 8.04D-06  0.00D+00 EMaxC= 1.00D-01 BMatC= 8.78D-10 BMatP= 1.74D-08
 IDIUse=1 WtCom= 1.00D+00 WtEn= 0.00D+00
 Coeff-Com:  0.161D-03-0.752D-03-0.619D-02 0.231D-01 0.366D-01-0.480D+00
 Coeff-Com:  0.143D+01
 Coeff:      0.161D-03-0.752D-03-0.619D-02 0.231D-01 0.366D-01-0.480D+00
 Coeff:      0.143D+01
 Gap=     0.539 Goal=   None    Shift=    0.000
 RMSDP=1.22D-06 MaxDP=2.52D-05 DE=-5.83D-08 OVMax= 3.69D-05

 Cycle   8  Pass 1  IDiag  1:
 E= -76.0340741634403     Delta-E=       -0.000000002529 Rises=F Damp=F
 DIIS: error= 1.13D-06 at cycle   8 NSaved=   8.
 NSaved= 8 IEnMin= 8 EnMin= -76.0340741634403     IErMin= 8 ErrMin= 1.13D-06
 ErrMax= 1.13D-06  0.00D+00 EMaxC= 1.00D-01 BMatC= 2.42D-11 BMatP= 8.78D-10
 IDIUse=1 WtCom= 1.00D+00 WtEn= 0.00D+00
 Coeff-Com: -0.223D-04 0.120D-03 0.106D-02-0.533D-02 0.130D-02 0.748D-01
 Coeff-Com: -0.367D+00 0.130D+01
 Coeff:     -0.223D-04 0.120D-03 0.106D-02-0.533D-02 0.130D-02 0.748D-01
 Coeff:     -0.367D+00 0.130D+01
 Gap=     0.539 Goal=   None    Shift=    0.000
 RMSDP=2.33D-07 MaxDP=3.26D-06 DE=-2.53D-09 OVMax= 4.64D-06

 Cycle   9  Pass 1  IDiag  1:
 E= -76.0340741634983     Delta-E=       -0.000000000058 Rises=F Damp=F
 DIIS: error= 1.36D-07 at cycle   9 NSaved=   9.
 NSaved= 9 IEnMin= 9 EnMin= -76.0340741634983     IErMin= 9 ErrMin= 1.36D-07
 ErrMax= 1.36D-07  0.00D+00 EMaxC= 1.00D-01 BMatC= 4.44D-13 BMatP= 2.42D-11
 IDIUse=1 WtCom= 1.00D+00 WtEn= 0.00D+00
 Coeff-Com: -0.440D-05 0.204D-04 0.162D-03-0.534D-03-0.113D-02 0.115D-01
 Coeff-Com: -0.257D-01-0.646D-01 0.108D+01
 Coeff:     -0.440D-05 0.204D-04 0.162D-03-0.534D-03-0.113D-02 0.115D-01
 Coeff:     -0.257D-01-0.646D-01 0.108D+01
 Gap=     0.539 Goal=   None    Shift=    0.000
 RMSDP=3.09D-08 MaxDP=3.16D-07 DE=-5.81D-11 OVMax= 4.94D-07

 Cycle  10  Pass 1  IDiag  1:
 E= -76.0340741634993     Delta-E=       -0.000000000001 Rises=F Damp=F
 DIIS: error= 3.58D-08 at cycle  10 NSaved=  10.
 NSaved=10 IEnMin=10 EnMin= -76.0340741634993     IErMin=10 ErrMin= 3.58D-08
 ErrMax= 3.58D-08  0.00D+00 EMaxC= 1.00D-01 BMatC= 2.92D-14 BMatP= 4.44D-13
 IDIUse=1 WtCom= 1.00D+00 WtEn= 0.00D+00
 Coeff-Com:  0.173D-05-0.863D-05-0.721D-04 0.300D-03 0.285D-03-0.549D-02
 Coeff-Com:  0.202D-01-0.364D-01-0.289D+00 0.131D+01
 Coeff:      0.173D-05-0.863D-05-0.721D-04 0.300D-03 0.285D-03-0.549D-02
 Coeff:      0.202D-01-0.364D-01-0.289D+00 0.131D+01
 Gap=     0.539 Goal=   None    Shift=    0.000
 RMSDP=8.82D-09 MaxDP=8.79D-08 DE=-9.81D-13 OVMax= 1.54D-07

 SCF Done:  E(RHF) =  -76.0340741635     A.U. after   10 cycles
            NFock= 10  Conv=0.88D-08     -V/T= 2.0029
 KE= 7.581292764397D+01 PE=-1.983383521688D+02 EE= 3.756502772370D+01
 Leave Link  502 at Wed Feb  8 14:50:53 2023, MaxMem=   754974720 cpu:               4.9 elap:               2.5
 (Enter /opt/cluster/programs/g16-c.01/g16/l801.exe)
 Windowed orbitals will be sorted by symmetry type.
 ExpMin= 2.97D-02 ExpMax= 1.17D+04 ExpMxC= 4.01D+02 IAcc=3 IRadAn=         5 AccDes= 0.00D+00
 HarFok:  IExCor=  205 AccDes= 0.00D+00 IRadAn=         5 IDoV=-2 UseB2=F ITyADJ=14
 ICtDFT= 12500011 ScaDFX=  1.000000  1.000000  1.000000  1.000000
 Largest valence mixing into a core orbital is  6.15D-05
 Largest core mixing into a valence orbital is  1.83D-05
 Range of M.O.s used for correlation:     2    41
 NBasis=    41 NAE=     5 NBE=     5 NFC=     1 NFV=     0
 NROrb=     40 NOA=     4 NOB=     4 NVA=    36 NVB=    36
 Leave Link  801 at Wed Feb  8 14:50:53 2023, MaxMem=   754974720 cpu:               0.5 elap:               0.2
 (Enter /opt/cluster/programs/g16-c.01/g16/l804.exe)
 Closed-shell transformation, MDV=   754974720 ITran=4 ISComp=2.
 Unit  1 TFree=         57024 TCopy=        242858.
 Semi-Direct transformation.
 ModeAB=           2 MOrb=             4 LenV=     754769661
 LASXX=        60334 LTotXX=       60334 LenRXX=       60334
 LTotAB=       65632 MaxLAS=      151360 LenRXY=      151360
 NonZer=      159520 LenScr=      785920 LnRSAI=           0
 LnScr1=           0 LExtra=           0 Total=       997614
 MaxDsk=          -1 SrtSym=           F ITran=            4
 DoSDTr:  NPSUse=  4
 JobTyp=0 Pass  1:  I=   1 to   4.
 (rs|ai) integrals will be sorted in core.
 Complete sort for first half transformation.
 First half transformation complete.
 Complete sort for second half transformation.
 Second half transformation complete.
 Spin components of T(2) and E(2):
     alpha-alpha T2 =       0.7903428556D-02 E2=     -0.2813513986D-01
     alpha-beta  T2 =       0.4485680004D-01 E2=     -0.1649544498D+00
     beta-beta   T2 =       0.7903428556D-02 E2=     -0.2813513986D-01
 ANorm=    0.1029885264D+01
 E2 =    -0.2212247295D+00 EUMP2 =    -0.76255298893016D+02
 Leave Link  804 at Wed Feb  8 14:50:55 2023, MaxMem=   754974720 cpu:               4.2 elap:               2.1
 (Enter /opt/cluster/programs/g16-c.01/g16/l913.exe)
 CIDS:  MDV=   754974720.
 Frozen-core window:  NFC=   1 NFV=   0.
 IFCWin=0 IBDFC=1 NFBD=     0     0 NFCmp=     0     0 NFFFC=     0     0
 Using DD3R+UMP44R for 1st iteration.
 Using DD4RQ for 2nd and later iterations.
 Keep R2 and R3 ints in memory in symmetry-blocked form, NReq=1234037.
 FoFCou: FMM=F IPFlag=           0 FMFlag=           0 FMFlg1=           0
         NFxFlg=           0 DoJE=F BraDBF=F KetDBF=F FulRan=T
         wScrn=  0.000000 ICntrl=       600 IOpCl=  0 I1Cent=           0 NGrid=           0
         NMat0=    1 NMatS0=    861 NMatT0=    0 NMatD0=    1 NMtDS0=    0 NMtDT0=    0
 Petite list used in FoFCou.
 CIDS: In Core Option IDoMem=           1.
 CCSD(T)
 =======
 Iterations=  50 Convergence= 0.100D-06
 Produce multiple copies of IABC intergrals
 Iteration Nr.   1
 **********************
 DD1Dir will call FoFMem   1 times, MxPair=        20
 NAB=    10 NAA=     0 NBB=     0.
 MP4(R+Q)=  0.25267796D-02
 Maximum subspace dimension=  5
 A-vector RMS=  5.5861838D-03 Max=  1.7847243D-02 conv= 1.00D-05.
 RLE energy=       -0.2230331398
 E3=       -0.44165185D-02        EUMP3=      -0.76259715411D+02
 E4(DQ)=   -0.16428773D-02        UMP4(DQ)=   -0.76261358289D+02
 E4(SDQ)=  -0.34582847D-02        UMP4(SDQ)=  -0.76263173696D+02
 VARIATIONAL ENERGIES WITH THE FIRST-ORDER WAVEFUNCTION:
 DE(Corr)= -0.22301852     E(Corr)=     -76.257092682    
 NORM(A)=   0.10308742D+01
 Iteration Nr.   2
 **********************
 DD1Dir will call FoFMem   1 times, MxPair=        20
 NAB=    10 NAA=     0 NBB=     0.
 A-vector RMS=  6.7769039D-04 Max=  3.1934130D-03 conv= 1.00D-05.
 RLE energy=       -0.2284355849
 DE(Corr)= -0.22779723     E(CORR)=     -76.261871393     Delta=-4.78D-03
 NORM(A)=   0.10332261D+01
 Iteration Nr.   3
 **********************
 DD1Dir will call FoFMem   1 times, MxPair=        20
 NAB=    10 NAA=     0 NBB=     0.
 A-vector RMS=  7.9008527D-04 Max=  3.0463830D-03 conv= 1.00D-05.
 RLE energy=       -0.2288399080
 DE(Corr)= -0.22838561     E(CORR)=     -76.262459771     Delta=-5.88D-04
 NORM(A)=   0.10337964D+01
 Iteration Nr.   4
 **********************
 DD1Dir will call FoFMem   1 times, MxPair=        20
 NAB=    10 NAA=     0 NBB=     0.
 A-vector RMS=  1.0009732D-04 Max=  3.9297294D-04 conv= 1.00D-05.
 RLE energy=       -0.2288803540
 DE(Corr)= -0.22884757     E(CORR)=     -76.262921731     Delta=-4.62D-04
 NORM(A)=   0.10339212D+01
 Iteration Nr.   5
 **********************
 DD1Dir will call FoFMem   1 times, MxPair=        20
 NAB=    10 NAA=     0 NBB=     0.
 A-vector RMS=  4.4179624D-05 Max=  1.6677864D-04 conv= 1.00D-05.
 RLE energy=       -0.2288870838
 DE(Corr)= -0.22888285     E(CORR)=     -76.262957016     Delta=-3.53D-05
 NORM(A)=   0.10339422D+01
 Iteration Nr.   6
 **********************
 DD1Dir will call FoFMem   1 times, MxPair=        20
 NAB=    10 NAA=     0 NBB=     0.
 A-vector RMS=  1.2144858D-05 Max=  3.9383055D-05 conv= 1.00D-05.
 RLE energy=       -0.2288839289
 DE(Corr)= -0.22888542     E(CORR)=     -76.262959585     Delta=-2.57D-06
 NORM(A)=   0.10339443D+01
 Iteration Nr.   7
 **********************
 DD1Dir will call FoFMem   1 times, MxPair=        20
 NAB=    10 NAA=     0 NBB=     0.
 A-vector RMS=  5.5204058D-06 Max=  2.2023175D-05 conv= 1.00D-05.
 RLE energy=       -0.2288846273
 DE(Corr)= -0.22888546     E(CORR)=     -76.262959628     Delta=-4.24D-08
 NORM(A)=   0.10339450D+01
 Iteration Nr.   8
 **********************
 DD1Dir will call FoFMem   1 times, MxPair=        20
 NAB=    10 NAA=     0 NBB=     0.
 A-vector RMS=  1.8804400D-06 Max=  6.8901899D-06 conv= 1.00D-05.
 RLE energy=       -0.2288849082
 DE(Corr)= -0.22888504     E(CORR)=     -76.262959204     Delta= 4.23D-07
 NORM(A)=   0.10339455D+01
 Iteration Nr.   9
 **********************
 DD1Dir will call FoFMem   1 times, MxPair=        20
 NAB=    10 NAA=     0 NBB=     0.
 A-vector RMS=  6.5852289D-07 Max=  2.5784643D-06 conv= 1.00D-05.
 RLE energy=       -0.2288852363
 DE(Corr)= -0.22888524     E(CORR)=     -76.262959401     Delta=-1.97D-07
 NORM(A)=   0.10339457D+01
 Iteration Nr.  10
 **********************
 DD1Dir will call FoFMem   1 times, MxPair=        20
 NAB=    10 NAA=     0 NBB=     0.
 A-vector RMS=  2.8289367D-07 Max=  1.0010895D-06 conv= 1.00D-05.
 RLE energy=       -0.2288852777
 DE(Corr)= -0.22888525     E(CORR)=     -76.262959409     Delta=-8.47D-09
 NORM(A)=   0.10339458D+01
 CI/CC converged in   10 iterations to DelEn=-8.47D-09 Conv= 1.00D-07 ErrA1= 2.83D-07 Conv= 1.00D-05
 Wavefunction amplitudes converged. E(Corr)=     -76.262959409    
 Largest amplitude= 3.46D-02
 IPart=  2 IA=    3   10.95% done.
 IPart=  2 IA=    5   21.27% done.
 IPart=  1 IA=    7   30.95% done.
 IPart=  4 IA=    9   40.00% done.
 IPart=  3 IA=   12   52.38% done.
 IPart=  1 IA=   15   63.33% done.
 IPart=  4 IA=   18   72.86% done.
 IPart=  4 IA=   21   80.95% done.
 IPart=  2 IA=   26   91.27% done.
 Time for triples=        0.45 seconds.
 T4(CCSD)= -0.57973186D-02
 T5(CCSD)=  0.42762763D-03
 CCSD(T)= -0.76268329100D+02
 Discarding MO integrals.
 Leave Link  913 at Wed Feb  8 14:50:56 2023, MaxMem=   754974720 cpu:               1.6 elap:               0.5
 (Enter /opt/cluster/programs/g16-c.01/g16/l601.exe)
 Copying SCF densities to generalized density rwf, IOpCl= 0 IROHF=0.

 **********************************************************************

            Population analysis using the SCF Density.

 **********************************************************************

 Orbital symmetries:
       Occupied  (A') (A') (A') (A') (A")
       Virtual   (A') (A') (A') (A") (A') (A') (A') (A') (A") (A')
                 (A") (A') (A') (A') (A') (A') (A") (A') (A") (A')
                 (A') (A") (A') (A') (A") (A") (A') (A') (A') (A')
                 (A') (A") (A') (A") (A') (A')
 The electronic state is 1-A'.
 Alpha  occ. eigenvalues --  -20.57536  -1.33599  -0.72532  -0.55753  -0.50348
 Alpha virt. eigenvalues --    0.03571   0.05672   0.17596   0.19677   0.21641
 Alpha virt. eigenvalues --    0.22820   0.29116   0.31224   0.37700   0.42473
 Alpha virt. eigenvalues --    0.44874   0.52249   0.63916   0.65631   0.83271
 Alpha virt. eigenvalues --    0.88077   1.08855   1.09520   1.14705   1.37696
 Alpha virt. eigenvalues --    1.46574   1.48827   1.57136   1.96395   2.02990
 Alpha virt. eigenvalues --    2.06228   2.39674   2.42842   2.58170   2.73527
 Alpha virt. eigenvalues --    2.86700   3.66043   3.66976   3.70268   4.08487
 Alpha virt. eigenvalues --    4.22174
          Condensed to atoms (all electrons):
               1          2          3
     1  O    7.726234   0.323620   0.340123
     2  H    0.323620   0.489934  -0.037825
     3  H    0.340123  -0.037825   0.531995
 Mulliken charges:
               1
     1  O   -0.389977
     2  H    0.224271
     3  H    0.165707
 Sum of Mulliken charges =  -0.00000
 Mulliken charges with hydrogens summed into heavy atoms:
               1
     1  O   -0.000000
 Electronic spatial extent (au):  <R**2>=             19.9166
 Charge=             -0.0000 electrons
 Dipole moment (field-independent basis, Debye):
    X=             -0.0144    Y=             -1.8094    Z=             -0.0000  Tot=              1.8095
 Quadrupole moment (field-independent basis, Debye-Ang):
   XX=             -3.6780   YY=             -6.6405   ZZ=             -7.6792
   XY=             -0.1927   XZ=             -0.0000   YZ=              0.0000
 Traceless Quadrupole moment (field-independent basis, Debye-Ang):
   XX=              2.3212   YY=             -0.6413   ZZ=             -1.6799
   XY=             -0.1927   XZ=             -0.0000   YZ=              0.0000
 Octapole moment (field-independent basis, Debye-Ang**2):
  XXX=             -0.0532  YYY=             -0.9613  ZZZ=             -0.0000  XYY=              0.1142
  XXY=             -1.4669  XXZ=             -0.0000  XZZ=             -0.0304  YZZ=             -0.2474
  YYZ=             -0.0000  XYZ=              0.0000
 Hexadecapole moment (field-independent basis, Debye-Ang**3):
 XXXX=             -5.7040 YYYY=             -7.5192 ZZZZ=             -7.0061 XXXY=             -0.0552
 XXXZ=             -0.0000 YYYX=              0.0083 YYYZ=             -0.0000 ZZZX=              0.0000
 ZZZY=             -0.0000 XXYY=             -2.0595 XXZZ=             -2.6027 YYZZ=             -2.4555
 XXYZ=              0.0000 YYXZ=              0.0000 ZZXY=              0.0388
 N-N= 8.926322637592D+00 E-N=-1.983383518289D+02  KE= 7.581292764397D+01
 Symmetry A'   KE= 7.138049362861D+01
 Symmetry A"   KE= 4.432434015366D+00
 Leave Link  601 at Wed Feb  8 14:50:56 2023, MaxMem=   754974720 cpu:               0.4 elap:               0.2
 (Enter /opt/cluster/programs/g16-c.01/g16/l9999.exe)
 Unable to Open any file for archive entry.
 1\1\GINC-NODE71\SP\RCCSD(T)-FC\Aug-CC-pVDZ\H2O1\BOITTIER\08-Feb-2023\0
 \\#P CCSD(T)/aug-cc-pVDZ scf(maxcycle=200)\\Gaussian input\\0,1\O,0,0.
 ,0.11751,0.\H,0,0.7973622306,-0.5007896629,0.\H,0,-0.8637050384,-0.299
 2568492,0.\\Version=ES64L-G16RevC.01\State=1-A'\HF=-76.0340742\MP2=-76
 .2552989\MP3=-76.2597154\MP4D=-76.2638851\MP4DQ=-76.2613583\MP4SDQ=-76
 .2631737\CCSD=-76.2629594\CCSD(T)=-76.2683291\RMSD=8.822e-09\PG=CS [SG
 (H2O1)]\\@
 The archive entry for this job was punched.


 TRUTH, IN SCIENCE, CAN BE DEFINED AS THE WORKING HYPOTHESIS 
 BEST FITTED TO OPEN THE WAY TO THE NEXT BETTER ONE.

                              -- KONRAD LORENZ
 Job cpu time:       0 days  0 hours  0 minutes 15.4 seconds.
 Elapsed time:       0 days  0 hours  0 minutes  7.2 seconds.
 File lengths (MBytes):  RWF=     15 Int=      0 D2E=      0 Chk=      1 Scr=      1
 Normal termination of Gaussian 16 at Wed Feb  8 14:50:56 2023.
