 Entering Gaussian System, Link 0=/opt/cluster/programs/g16-c.01/g16/g16
 Input=/scratch/boittier/jobs/tmp.7261753/gaussian_83_water_ccsdt_atz.com
 Output=/scratch/boittier/jobs/tmp.7261753/gaussian_83_water_ccsdt_atz.out
 Initial command:
 /opt/cluster/programs/g16-c.01/g16/l1.exe "/scratch/boittier/jobs/tmp.7261753/Gau-50840.inp" -scrdir="/scratch/boittier/jobs/tmp.7261753/"
 Entering Link 1 = /opt/cluster/programs/g16-c.01/g16/l1.exe PID=     50841.
  
 Copyright (c) 1988-2019, Gaussian, Inc.  All Rights Reserved.
  
 This is part of the Gaussian(R) 16 program.  It is based on
 the Gaussian(R) 09 system (copyright 2009, Gaussian, Inc.),
 the Gaussian(R) 03 system (copyright 2003, Gaussian, Inc.),
 the Gaussian(R) 98 system (copyright 1998, Gaussian, Inc.),
 the Gaussian(R) 94 system (copyright 1995, Gaussian, Inc.),
 the Gaussian 92(TM) system (copyright 1992, Gaussian, Inc.),
 the Gaussian 90(TM) system (copyright 1990, Gaussian, Inc.),
 the Gaussian 88(TM) system (copyright 1988, Gaussian, Inc.),
 the Gaussian 86(TM) system (copyright 1986, Carnegie Mellon
 University), and the Gaussian 82(TM) system (copyright 1983,
 Carnegie Mellon University). Gaussian is a federally registered
 trademark of Gaussian, Inc.
  
 This software contains proprietary and confidential information,
 including trade secrets, belonging to Gaussian, Inc.
  
 This software is provided under written license and may be
 used, copied, transmitted, or stored only in accord with that
 written license.
  
 The following legend is applicable only to US Government
 contracts under FAR:
  
                    RESTRICTED RIGHTS LEGEND
  
 Use, reproduction and disclosure by the US Government is
 subject to restrictions as set forth in subparagraphs (a)
 and (c) of the Commercial Computer Software - Restricted
 Rights clause in FAR 52.227-19.
  
 Gaussian, Inc.
 340 Quinnipiac St., Bldg. 40, Wallingford CT 06492
  
  
 ---------------------------------------------------------------
 Warning -- This program may not be used in any manner that
 competes with the business of Gaussian, Inc. or will provide
 assistance to any competitor of Gaussian, Inc.  The licensee
 of this program is prohibited from giving any competitor of
 Gaussian, Inc. access to this program.  By using this program,
 the user acknowledges that Gaussian, Inc. is engaged in the
 business of creating and licensing software in the field of
 computational chemistry and represents and warrants to the
 licensee that it is not a competitor of Gaussian, Inc. and that
 it will not use this program in any manner prohibited above.
 ---------------------------------------------------------------
  

 Cite this work as:
 Gaussian 16, Revision C.01,
 M. J. Frisch, G. W. Trucks, H. B. Schlegel, G. E. Scuseria, 
 M. A. Robb, J. R. Cheeseman, G. Scalmani, V. Barone, 
 G. A. Petersson, H. Nakatsuji, X. Li, M. Caricato, A. V. Marenich, 
 J. Bloino, B. G. Janesko, R. Gomperts, B. Mennucci, H. P. Hratchian, 
 J. V. Ortiz, A. F. Izmaylov, J. L. Sonnenberg, D. Williams-Young, 
 F. Ding, F. Lipparini, F. Egidi, J. Goings, B. Peng, A. Petrone, 
 T. Henderson, D. Ranasinghe, V. G. Zakrzewski, J. Gao, N. Rega, 
 G. Zheng, W. Liang, M. Hada, M. Ehara, K. Toyota, R. Fukuda, 
 J. Hasegawa, M. Ishida, T. Nakajima, Y. Honda, O. Kitao, H. Nakai, 
 T. Vreven, K. Throssell, J. A. Montgomery, Jr., J. E. Peralta, 
 F. Ogliaro, M. J. Bearpark, J. J. Heyd, E. N. Brothers, K. N. Kudin, 
 V. N. Staroverov, T. A. Keith, R. Kobayashi, J. Normand, 
 K. Raghavachari, A. P. Rendell, J. C. Burant, S. S. Iyengar, 
 J. Tomasi, M. Cossi, J. M. Millam, M. Klene, C. Adamo, R. Cammi, 
 J. W. Ochterski, R. L. Martin, K. Morokuma, O. Farkas, 
 J. B. Foresman, and D. J. Fox, Gaussian, Inc., Wallingford CT, 2019.
 
 ******************************************
 Gaussian 16:  ES64L-G16RevC.01  3-Jul-2019
                 8-Feb-2023 
 ******************************************
 %nproc=4
 Will use up to    4 processors via shared memory.
 %mem=5760MB
 %chk=gaussian_83_water_ccsdt_atz.chk
 ----------------------------------------
 #P CCSD(T)/aug-cc-pVTZ scf(maxcycle=200)
 ----------------------------------------
 1/38=1,172=1/1;
 2/12=2,17=6,18=5,40=1/2;
 3/5=16,6=1,7=10,11=9,25=1,30=1/1,2,3;
 4//1;
 5/5=2,7=200,38=5/2;
 8/6=4,9=120000,10=1/1,4;
 9/5=7,14=2/13;
 6/7=2,8=2,9=2,10=2/1;
 99/5=1,9=1/99;
 Leave Link    1 at Wed Feb  8 13:52:11 2023, MaxMem=   754974720 cpu:               0.1 elap:               0.0
 (Enter /opt/cluster/programs/g16-c.01/g16/l101.exe)
 --------------
 Gaussian input
 --------------
 Symbolic Z-matrix:
 Charge =  0 Multiplicity = 1
 O                     0.        0.11751   0. 
 H                     0.75785  -0.47015   0. 
 H                    -0.59359  -0.6357    0. 
 
 ITRead=  0  0  0
 MicOpt= -1 -1 -1
 NAtoms=      3 NQM=        3 NQMF=       0 NMMI=      0 NMMIF=      0
                NMic=       0 NMicF=      0.
                    Isotopes and Nuclear Properties:
 (Nuclear quadrupole moments (NQMom) in fm**2, nuclear magnetic moments (NMagM)
  in nuclear magnetons)

  Atom         1           2           3
 IAtWgt=          16           1           1
 AtmWgt=  15.9949146   1.0078250   1.0078250
 NucSpn=           0           1           1
 AtZEff=  -0.0000000  -0.0000000  -0.0000000
 NQMom=    0.0000000   0.0000000   0.0000000
 NMagM=    0.0000000   2.7928460   2.7928460
 AtZNuc=   8.0000000   1.0000000   1.0000000
 Leave Link  101 at Wed Feb  8 13:52:12 2023, MaxMem=   754974720 cpu:               0.6 elap:               0.2
 (Enter /opt/cluster/programs/g16-c.01/g16/l202.exe)
                          Input orientation:                          
 ---------------------------------------------------------------------
 Center     Atomic      Atomic             Coordinates (Angstroms)
 Number     Number       Type             X           Y           Z
 ---------------------------------------------------------------------
      1          8           0        0.000000    0.117510    0.000000
      2          1           0        0.757850   -0.470150    0.000000
      3          1           0       -0.593594   -0.635701    0.000000
 ---------------------------------------------------------------------
                    Distance matrix (angstroms):
                    1          2          3
     1  O    0.000000
     2  H    0.959000   0.000000
     3  H    0.959000   1.361546   0.000000
 Stoichiometry    H2O
 Framework group  C2V[C2(O),SGV(H2)]
 Deg. of freedom     2
 Full point group                 C2V     NOp   4
 Largest Abelian subgroup         C2V     NOp   4
 Largest concise Abelian subgroup C2      NOp   2
                         Standard orientation:                         
 ---------------------------------------------------------------------
 Center     Atomic      Atomic             Coordinates (Angstroms)
 Number     Number       Type             X           Y           Z
 ---------------------------------------------------------------------
      1          8           0       -0.000000    0.000000    0.135089
      2          1           0        0.000000    0.680773   -0.540358
      3          1           0       -0.000000   -0.680773   -0.540358
 ---------------------------------------------------------------------
 Rotational constants (GHZ):         618.8203918         540.9999950         288.6497191
 Leave Link  202 at Wed Feb  8 13:52:12 2023, MaxMem=   754974720 cpu:               0.1 elap:               0.0
 (Enter /opt/cluster/programs/g16-c.01/g16/l301.exe)
 Standard basis: Aug-CC-pVTZ (5D, 7F)
 Ernie: Thresh=  0.10000D-02 Tol=  0.10000D-05 Strict=F.
 Ernie:  3 primitive shells out of 52 were deleted.
 There are    42 symmetry adapted cartesian basis functions of A1  symmetry.
 There are    12 symmetry adapted cartesian basis functions of A2  symmetry.
 There are    20 symmetry adapted cartesian basis functions of B1  symmetry.
 There are    31 symmetry adapted cartesian basis functions of B2  symmetry.
 There are    35 symmetry adapted basis functions of A1  symmetry.
 There are    12 symmetry adapted basis functions of A2  symmetry.
 There are    18 symmetry adapted basis functions of B1  symmetry.
 There are    27 symmetry adapted basis functions of B2  symmetry.
    92 basis functions,   126 primitive gaussians,   105 cartesian basis functions
     5 alpha electrons        5 beta electrons
       nuclear repulsion energy         9.2174758739 Hartrees.
 IExCor=    0 DFT=F Ex=HF Corr=None ExCW=0 ScaHFX=  1.000000
 ScaDFX=  1.000000  1.000000  1.000000  1.000000 ScalE2=  1.000000  1.000000
 IRadAn=      5 IRanWt=     -1 IRanGd=            0 ICorTp=0 IEmpDi=  4
 NAtoms=    3 NActive=    3 NUniq=    2 SFac= 2.25D+00 NAtFMM=   60 NAOKFM=F Big=F
 Integral buffers will be    131072 words long.
 Raffenetti 1 integral format.
 Two-electron integral symmetry is turned on.
 Leave Link  301 at Wed Feb  8 13:52:12 2023, MaxMem=   754974720 cpu:               0.2 elap:               0.1
 (Enter /opt/cluster/programs/g16-c.01/g16/l302.exe)
 NPDir=0 NMtPBC=     1 NCelOv=     1 NCel=       1 NClECP=     1 NCelD=      1
         NCelK=      1 NCelE2=     1 NClLst=     1 CellRange=     0.0.
 One-electron integrals computed using PRISM.
 One-electron integral symmetry used in STVInt
 NBasis=    92 RedAO= T EigKep=  3.83D-04  NBF=    35    12    18    27
 NBsUse=    92 1.00D-06 EigRej= -1.00D+00 NBFU=    35    12    18    27
 Leave Link  302 at Wed Feb  8 13:52:12 2023, MaxMem=   754974720 cpu:               1.6 elap:               0.5
 (Enter /opt/cluster/programs/g16-c.01/g16/l303.exe)
 DipDrv:  MaxL=1.
 Leave Link  303 at Wed Feb  8 13:52:12 2023, MaxMem=   754974720 cpu:               0.3 elap:               0.1
 (Enter /opt/cluster/programs/g16-c.01/g16/l401.exe)
 ExpMin= 2.53D-02 ExpMax= 1.53D+04 ExpMxC= 5.22D+02 IAcc=3 IRadAn=         5 AccDes= 0.00D+00
 Harris functional with IExCor=  205 and IRadAn=       5 diagonalized for initial guess.
 HarFok:  IExCor=  205 AccDes= 0.00D+00 IRadAn=         5 IDoV= 1 UseB2=F ITyADJ=14
 ICtDFT=  3500011 ScaDFX=  1.000000  1.000000  1.000000  1.000000
 FoFCou: FMM=F IPFlag=           0 FMFlag=      100000 FMFlg1=           0
         NFxFlg=           0 DoJE=T BraDBF=F KetDBF=T FulRan=T
         wScrn=  0.000000 ICntrl=       500 IOpCl=  0 I1Cent=   200000004 NGrid=           0
         NMat0=    1 NMatS0=      1 NMatT0=    0 NMatD0=    1 NMtDS0=    0 NMtDT0=    0
 Petite list used in FoFCou.
 Harris En= -76.1469381609998    
 JPrj=0 DoOrth=F DoCkMO=F.
 Initial guess orbital symmetries:
       Occupied  (A1) (A1) (B2) (A1) (B1)
       Virtual   (A1) (B2) (A1) (B1) (B2) (A1) (B2) (A1) (A2) (B1)
                 (A1) (A1) (B2) (B2) (B2) (A1) (A1) (B1) (A2) (B1)
                 (A1) (A1) (B2) (B1) (A1) (A2) (B2) (A1) (B2) (B1)
                 (B2) (A1) (A2) (B2) (A1) (A2) (B1) (A1) (B2) (B2)
                 (A1) (B1) (A2) (A1) (A1) (B1) (B2) (A1) (B2) (B1)
                 (B2) (A1) (A2) (A1) (B2) (B1) (A1) (B1) (A2) (B2)
                 (A1) (A2) (B1) (B2) (A1) (B2) (B2) (A2) (A1) (B1)
                 (B2) (A1) (A1) (B2) (B1) (A1) (B2) (B1) (B1) (A2)
                 (A2) (A1) (A1) (A1) (B2) (B2) (A1)
 The electronic state of the initial guess is 1-A1.
 Leave Link  401 at Wed Feb  8 13:52:13 2023, MaxMem=   754974720 cpu:               0.8 elap:               0.2
 (Enter /opt/cluster/programs/g16-c.01/g16/l502.exe)
 Keep R1 ints in memory in symmetry-blocked form, NReq=11496777.
 FoFCou: FMM=F IPFlag=           0 FMFlag=           0 FMFlg1=           0
         NFxFlg=           0 DoJE=F BraDBF=F KetDBF=F FulRan=T
         wScrn=  0.000000 ICntrl=       600 IOpCl=  0 I1Cent=           0 NGrid=           0
         NMat0=    1 NMatS0=   4278 NMatT0=    0 NMatD0=    1 NMtDS0=    0 NMtDT0=    0
 Petite list used in FoFCou.
 Closed shell SCF:
 Using DIIS extrapolation, IDIIS=  1040.
 NGot=   754974720 LenX=   752607631 LenY=   752596165
 Requested convergence on RMS density matrix=1.00D-08 within 200 cycles.
 Requested convergence on MAX density matrix=1.00D-06.
 Requested convergence on             energy=1.00D-06.
 No special actions if energy rises.

 Cycle   1  Pass 1  IDiag  1:
 E= -75.9652982993653    
 DIIS: error= 5.13D-02 at cycle   1 NSaved=   1.
 NSaved= 1 IEnMin= 1 EnMin= -75.9652982993653     IErMin= 1 ErrMin= 5.13D-02
 ErrMax= 5.13D-02  0.00D+00 EMaxC= 1.00D-01 BMatC= 2.02D-01 BMatP= 2.02D-01
 IDIUse=3 WtCom= 4.87D-01 WtEn= 5.13D-01
 Coeff-Com:  0.100D+01
 Coeff-En:   0.100D+01
 Coeff:      0.100D+01
 Gap=     0.455 Goal=   None    Shift=    0.000
 GapD=    0.455 DampG=2.000 DampE=0.500 DampFc=1.0000 IDamp=-1.
 RMSDP=2.16D-03 MaxDP=4.82D-02              OVMax= 1.27D-01

 Cycle   2  Pass 1  IDiag  1:
 E= -76.0164094906449     Delta-E=       -0.051111191280 Rises=F Damp=F
 DIIS: error= 3.37D-02 at cycle   2 NSaved=   2.
 NSaved= 2 IEnMin= 2 EnMin= -76.0164094906449     IErMin= 2 ErrMin= 3.37D-02
 ErrMax= 3.37D-02  0.00D+00 EMaxC= 1.00D-01 BMatC= 6.03D-02 BMatP= 2.02D-01
 IDIUse=3 WtCom= 6.63D-01 WtEn= 3.37D-01
 Coeff-Com:  0.326D+00 0.674D+00
 Coeff-En:   0.211D+00 0.789D+00
 Coeff:      0.287D+00 0.713D+00
 Gap=     0.567 Goal=   None    Shift=    0.000
 RMSDP=1.32D-03 MaxDP=3.62D-02 DE=-5.11D-02 OVMax= 6.49D-02

 Cycle   3  Pass 1  IDiag  1:
 E= -76.0523300001464     Delta-E=       -0.035920509501 Rises=F Damp=F
 DIIS: error= 6.56D-03 at cycle   3 NSaved=   3.
 NSaved= 3 IEnMin= 3 EnMin= -76.0523300001464     IErMin= 3 ErrMin= 6.56D-03
 ErrMax= 6.56D-03  0.00D+00 EMaxC= 1.00D-01 BMatC= 2.60D-03 BMatP= 6.03D-02
 IDIUse=3 WtCom= 9.34D-01 WtEn= 6.56D-02
 Coeff-Com: -0.310D-01 0.140D+00 0.891D+00
 Coeff-En:   0.000D+00 0.000D+00 0.100D+01
 Coeff:     -0.289D-01 0.131D+00 0.898D+00
 Gap=     0.540 Goal=   None    Shift=    0.000
 RMSDP=2.09D-04 MaxDP=3.97D-03 DE=-3.59D-02 OVMax= 1.24D-02

 Cycle   4  Pass 1  IDiag  1:
 E= -76.0539685551598     Delta-E=       -0.001638555013 Rises=F Damp=F
 DIIS: error= 5.49D-04 at cycle   4 NSaved=   4.
 NSaved= 4 IEnMin= 4 EnMin= -76.0539685551598     IErMin= 4 ErrMin= 5.49D-04
 ErrMax= 5.49D-04  0.00D+00 EMaxC= 1.00D-01 BMatC= 1.17D-05 BMatP= 2.60D-03
 IDIUse=3 WtCom= 9.95D-01 WtEn= 5.49D-03
 Coeff-Com:  0.760D-02-0.536D-01-0.270D+00 0.132D+01
 Coeff-En:   0.000D+00 0.000D+00 0.000D+00 0.100D+01
 Coeff:      0.756D-02-0.533D-01-0.269D+00 0.131D+01
 Gap=     0.542 Goal=   None    Shift=    0.000
 RMSDP=3.80D-05 MaxDP=6.87D-04 DE=-1.64D-03 OVMax= 2.11D-03

 Cycle   5  Pass 1  IDiag  1:
 E= -76.0539910343635     Delta-E=       -0.000022479204 Rises=F Damp=F
 DIIS: error= 1.58D-04 at cycle   5 NSaved=   5.
 NSaved= 5 IEnMin= 5 EnMin= -76.0539910343635     IErMin= 5 ErrMin= 1.58D-04
 ErrMax= 1.58D-04  0.00D+00 EMaxC= 1.00D-01 BMatC= 6.04D-07 BMatP= 1.17D-05
 IDIUse=3 WtCom= 9.98D-01 WtEn= 1.58D-03
 Coeff-Com: -0.169D-03 0.421D-02 0.220D-01-0.309D+00 0.128D+01
 Coeff-En:   0.000D+00 0.000D+00 0.000D+00 0.000D+00 0.100D+01
 Coeff:     -0.169D-03 0.420D-02 0.219D-01-0.309D+00 0.128D+01
 Gap=     0.542 Goal=   None    Shift=    0.000
 RMSDP=1.03D-05 MaxDP=2.34D-04 DE=-2.25D-05 OVMax= 7.19D-04

 Cycle   6  Pass 1  IDiag  1:
 E= -76.0539924910388     Delta-E=       -0.000001456675 Rises=F Damp=F
 DIIS: error= 2.41D-05 at cycle   6 NSaved=   6.
 NSaved= 6 IEnMin= 6 EnMin= -76.0539924910388     IErMin= 6 ErrMin= 2.41D-05
 ErrMax= 2.41D-05  0.00D+00 EMaxC= 1.00D-01 BMatC= 1.84D-08 BMatP= 6.04D-07
 IDIUse=1 WtCom= 1.00D+00 WtEn= 0.00D+00
 Coeff-Com: -0.191D-03 0.614D-03 0.158D-02 0.434D-01-0.384D+00 0.134D+01
 Coeff:     -0.191D-03 0.614D-03 0.158D-02 0.434D-01-0.384D+00 0.134D+01
 Gap=     0.542 Goal=   None    Shift=    0.000
 RMSDP=2.00D-06 MaxDP=5.15D-05 DE=-1.46D-06 OVMax= 1.42D-04

 Cycle   7  Pass 1  IDiag  1:
 E= -76.0539925407837     Delta-E=       -0.000000049745 Rises=F Damp=F
 DIIS: error= 3.30D-06 at cycle   7 NSaved=   7.
 NSaved= 7 IEnMin= 7 EnMin= -76.0539925407837     IErMin= 7 ErrMin= 3.30D-06
 ErrMax= 3.30D-06  0.00D+00 EMaxC= 1.00D-01 BMatC= 5.49D-10 BMatP= 1.84D-08
 IDIUse=1 WtCom= 1.00D+00 WtEn= 0.00D+00
 Coeff-Com:  0.305D-04-0.271D-03-0.129D-02 0.106D-01-0.139D-01-0.133D+00
 Coeff-Com:  0.114D+01
 Coeff:      0.305D-04-0.271D-03-0.129D-02 0.106D-01-0.139D-01-0.133D+00
 Coeff:      0.114D+01
 Gap=     0.542 Goal=   None    Shift=    0.000
 RMSDP=2.90D-07 MaxDP=5.59D-06 DE=-4.97D-08 OVMax= 1.75D-05

 Cycle   8  Pass 1  IDiag  1:
 E= -76.0539925418813     Delta-E=       -0.000000001098 Rises=F Damp=F
 DIIS: error= 7.54D-07 at cycle   8 NSaved=   8.
 NSaved= 8 IEnMin= 8 EnMin= -76.0539925418813     IErMin= 8 ErrMin= 7.54D-07
 ErrMax= 7.54D-07  0.00D+00 EMaxC= 1.00D-01 BMatC= 2.49D-11 BMatP= 5.49D-10
 IDIUse=1 WtCom= 1.00D+00 WtEn= 0.00D+00
 Coeff-Com:  0.467D-05 0.131D-04 0.155D-03-0.406D-02 0.211D-01-0.433D-01
 Coeff-Com: -0.206D+00 0.123D+01
 Coeff:      0.467D-05 0.131D-04 0.155D-03-0.406D-02 0.211D-01-0.433D-01
 Coeff:     -0.206D+00 0.123D+01
 Gap=     0.542 Goal=   None    Shift=    0.000
 RMSDP=7.94D-08 MaxDP=1.84D-06 DE=-1.10D-09 OVMax= 4.54D-06

 Cycle   9  Pass 1  IDiag  1:
 E= -76.0539925419441     Delta-E=       -0.000000000063 Rises=F Damp=F
 DIIS: error= 1.38D-07 at cycle   9 NSaved=   9.
 NSaved= 9 IEnMin= 9 EnMin= -76.0539925419441     IErMin= 9 ErrMin= 1.38D-07
 ErrMax= 1.38D-07  0.00D+00 EMaxC= 1.00D-01 BMatC= 6.17D-13 BMatP= 2.49D-11
 IDIUse=1 WtCom= 1.00D+00 WtEn= 0.00D+00
 Coeff-Com: -0.151D-05 0.174D-05-0.179D-04 0.762D-03-0.426D-02 0.109D-01
 Coeff-Com:  0.338D-01-0.327D+00 0.129D+01
 Coeff:     -0.151D-05 0.174D-05-0.179D-04 0.762D-03-0.426D-02 0.109D-01
 Coeff:      0.338D-01-0.327D+00 0.129D+01
 Gap=     0.542 Goal=   None    Shift=    0.000
 RMSDP=1.45D-08 MaxDP=3.28D-07 DE=-6.28D-11 OVMax= 7.03D-07

 Cycle  10  Pass 1  IDiag  1:
 E= -76.0539925419454     Delta-E=       -0.000000000001 Rises=F Damp=F
 DIIS: error= 2.94D-08 at cycle  10 NSaved=  10.
 NSaved=10 IEnMin=10 EnMin= -76.0539925419454     IErMin=10 ErrMin= 2.94D-08
 ErrMax= 2.94D-08  0.00D+00 EMaxC= 1.00D-01 BMatC= 2.57D-14 BMatP= 6.17D-13
 IDIUse=1 WtCom= 1.00D+00 WtEn= 0.00D+00
 Coeff-Com:  0.491D-06-0.112D-05 0.275D-05-0.198D-03 0.114D-02-0.330D-02
 Coeff-Com: -0.609D-02 0.922D-01-0.538D+00 0.145D+01
 Coeff:      0.491D-06-0.112D-05 0.275D-05-0.198D-03 0.114D-02-0.330D-02
 Coeff:     -0.609D-02 0.922D-01-0.538D+00 0.145D+01
 Gap=     0.542 Goal=   None    Shift=    0.000
 RMSDP=3.54D-09 MaxDP=8.52D-08 DE=-1.28D-12 OVMax= 1.90D-07

 SCF Done:  E(RHF) =  -76.0539925419     A.U. after   10 cycles
            NFock= 10  Conv=0.35D-08     -V/T= 2.0010
 KE= 7.597557982339D+01 PE=-1.990169690180D+02 EE= 3.776992077886D+01
 Leave Link  502 at Wed Feb  8 13:52:13 2023, MaxMem=   754974720 cpu:               2.2 elap:               0.6
 (Enter /opt/cluster/programs/g16-c.01/g16/l801.exe)
 Windowed orbitals will be sorted by symmetry type.
 ExpMin= 2.53D-02 ExpMax= 1.53D+04 ExpMxC= 5.22D+02 IAcc=3 IRadAn=         5 AccDes= 0.00D+00
 HarFok:  IExCor=  205 AccDes= 0.00D+00 IRadAn=         5 IDoV=-2 UseB2=F ITyADJ=14
 ICtDFT= 12500011 ScaDFX=  1.000000  1.000000  1.000000  1.000000
 Largest valence mixing into a core orbital is  1.12D-04
 Largest core mixing into a valence orbital is  1.68D-05
 Range of M.O.s used for correlation:     2    92
 NBasis=    92 NAE=     5 NBE=     5 NFC=     1 NFV=     0
 NROrb=     91 NOA=     4 NOB=     4 NVA=    87 NVB=    87

 **** Warning!!: The largest alpha MO coefficient is  0.15247545D+02

 Leave Link  801 at Wed Feb  8 13:52:13 2023, MaxMem=   754974720 cpu:               0.3 elap:               0.1
 (Enter /opt/cluster/programs/g16-c.01/g16/l804.exe)
 Closed-shell transformation, MDV=   754974720 ITran=4 ISComp=2.
 Unit  1 TFree=        277513 TCopy=        242092.
 Semi-Direct transformation.
 ModeAB=           4 MOrb=             4 LenV=     754589018
 LASXX=       368428 LTotXX=      368428 LenRXX=      751146
 LTotAB=      382718 MaxLAS=     1379560 LenRXY=           0
 NonZer=     1119574 LenScr=     2357760 LnRSAI=     1379560
 LnScr1=     2758656 LExtra=           0 Total=      7247122
 MaxDsk=          -1 SrtSym=           T ITran=            4
 DoSDTr:  NPSUse=  4
 JobTyp=0 Pass  1:  I=   1 to   4.
 (rs|ai) integrals will be sorted in core.
 Complete sort for first half transformation.
 First half transformation complete.
 Complete sort for second half transformation.
 Second half transformation complete.
 Spin components of T(2) and E(2):
     alpha-alpha T2 =       0.8260561391D-02 E2=     -0.3284351186D-01
     alpha-beta  T2 =       0.4778980123D-01 E2=     -0.2043810521D+00
     beta-beta   T2 =       0.8260561391D-02 E2=     -0.3284351186D-01
 ANorm=    0.1031654460D+01
 E2 =    -0.2700680758D+00 EUMP2 =    -0.76324060617765D+02
 Leave Link  804 at Wed Feb  8 13:52:14 2023, MaxMem=   754974720 cpu:               1.6 elap:               0.4
 (Enter /opt/cluster/programs/g16-c.01/g16/l913.exe)
 CIDS:  MDV=   754974720.
 Frozen-core window:  NFC=   1 NFV=   0.
 IFCWin=0 IBDFC=1 NFBD=     0     0 NFCmp=     0     0 NFFFC=     0     0
 Using DD3R+UMP44R for 1st iteration.
 Using DD4RQ for 2nd and later iterations.
 Keep R2 and R3 ints in memory in symmetry-blocked form, NReq=11500115.
 FoFCou: FMM=F IPFlag=           0 FMFlag=           0 FMFlg1=           0
         NFxFlg=           0 DoJE=F BraDBF=F KetDBF=F FulRan=T
         wScrn=  0.000000 ICntrl=       600 IOpCl=  0 I1Cent=           0 NGrid=           0
         NMat0=    1 NMatS0=   4278 NMatT0=    0 NMatD0=    1 NMtDS0=    0 NMtDT0=    0
 Petite list used in FoFCou.
 CIDS: In Core Option IDoMem=           1.
 CCSD(T)
 =======
 Iterations=  50 Convergence= 0.100D-06
 Produce multiple copies of IABC intergrals
 Iteration Nr.   1
 **********************
 DD1Dir will call FoFMem   1 times, MxPair=        20
 NAB=    10 NAA=     0 NBB=     0.
 MP4(R+Q)=  0.41406567D-02
 Maximum subspace dimension=  5
 A-vector RMS=  2.9000164D-03 Max=  1.2195636D-02 conv= 1.00D-05.
 RLE energy=       -0.2681924847
 E3=       -0.22959489D-02        EUMP3=      -0.76326356567D+02
 E4(DQ)=   -0.63507676D-03        UMP4(DQ)=   -0.76326991643D+02
 E4(SDQ)=  -0.25948645D-02        UMP4(SDQ)=  -0.76328951431D+02
 VARIATIONAL ENERGIES WITH THE FIRST-ORDER WAVEFUNCTION:
 DE(Corr)= -0.26817937     E(Corr)=     -76.322171917    
 NORM(A)=   0.10313434D+01
 Iteration Nr.   2
 **********************
 DD1Dir will call FoFMem   1 times, MxPair=        20
 NAB=    10 NAA=     0 NBB=     0.
 A-vector RMS=  3.0911706D-04 Max=  2.1942472D-03 conv= 1.00D-05.
 RLE energy=       -0.2740954189
 DE(Corr)= -0.27372037     E(CORR)=     -76.327712915     Delta=-5.54D-03
 NORM(A)=   0.10335015D+01
 Iteration Nr.   3
 **********************
 DD1Dir will call FoFMem   1 times, MxPair=        20
 NAB=    10 NAA=     0 NBB=     0.
 A-vector RMS=  4.0169607D-04 Max=  2.2194331D-03 conv= 1.00D-05.
 RLE energy=       -0.2744135621
 DE(Corr)= -0.27402823     E(CORR)=     -76.328020769     Delta=-3.08D-04
 NORM(A)=   0.10339300D+01
 Iteration Nr.   4
 **********************
 DD1Dir will call FoFMem   1 times, MxPair=        20
 NAB=    10 NAA=     0 NBB=     0.
 A-vector RMS=  6.2844936D-05 Max=  3.6577204D-04 conv= 1.00D-05.
 RLE energy=       -0.2744483319
 DE(Corr)= -0.27441951     E(CORR)=     -76.328412050     Delta=-3.91D-04
 NORM(A)=   0.10340449D+01
 Iteration Nr.   5
 **********************
 DD1Dir will call FoFMem   1 times, MxPair=        20
 NAB=    10 NAA=     0 NBB=     0.
 A-vector RMS=  2.9716900D-05 Max=  1.9002624D-04 conv= 1.00D-05.
 RLE energy=       -0.2744607479
 DE(Corr)= -0.27445530     E(CORR)=     -76.328447840     Delta=-3.58D-05
 NORM(A)=   0.10340676D+01
 Iteration Nr.   6
 **********************
 DD1Dir will call FoFMem   1 times, MxPair=        20
 NAB=    10 NAA=     0 NBB=     0.
 A-vector RMS=  7.0013571D-06 Max=  4.2603374D-05 conv= 1.00D-05.
 RLE energy=       -0.2744571641
 DE(Corr)= -0.27445803     E(CORR)=     -76.328450569     Delta=-2.73D-06
 NORM(A)=   0.10340694D+01
 Iteration Nr.   7
 **********************
 DD1Dir will call FoFMem   1 times, MxPair=        20
 NAB=    10 NAA=     0 NBB=     0.
 A-vector RMS=  2.2309631D-06 Max=  1.1533104D-05 conv= 1.00D-05.
 RLE energy=       -0.2744571619
 DE(Corr)= -0.27445803     E(CORR)=     -76.328450571     Delta=-1.49D-09
 NORM(A)=   0.10340700D+01
 Iteration Nr.   8
 **********************
 DD1Dir will call FoFMem   1 times, MxPair=        20
 NAB=    10 NAA=     0 NBB=     0.
 A-vector RMS=  8.8802296D-07 Max=  5.7271492D-06 conv= 1.00D-05.
 RLE energy=       -0.2744576860
 DE(Corr)= -0.27445779     E(CORR)=     -76.328450328     Delta= 2.43D-07
 NORM(A)=   0.10340703D+01
 Iteration Nr.   9
 **********************
 DD1Dir will call FoFMem   1 times, MxPair=        20
 NAB=    10 NAA=     0 NBB=     0.
 A-vector RMS=  1.8081089D-07 Max=  1.0023357D-06 conv= 1.00D-05.
 RLE energy=       -0.2744577735
 DE(Corr)= -0.27445779     E(CORR)=     -76.328450331     Delta=-3.35D-09
 NORM(A)=   0.10340705D+01
 CI/CC converged in    9 iterations to DelEn=-3.35D-09 Conv= 1.00D-07 ErrA1= 1.81D-07 Conv= 1.00D-05
 Wavefunction amplitudes converged. E(Corr)=     -76.328450331    
 Largest amplitude= 2.40D-02
 IPart=  1 IA=    6   11.23% done.
 IPart=  4 IA=   11   21.79% done.
 IPart=  3 IA=   16   31.68% done.
 IPart=  2 IA=   21   40.90% done.
 IPart=  4 IA=   27   51.08% done.
 IPart=  2 IA=   33   60.30% done.
 IPart=  1 IA=   41   71.10% done.
 IPart=  2 IA=   49   80.19% done.
 IPart=  4 IA=   61   90.62% done.
 Time for triples=        5.87 seconds.
 T4(CCSD)= -0.91197379D-02
 T5(CCSD)=  0.33174450D-03
 CCSD(T)= -0.76337238325D+02
 Discarding MO integrals.
 Leave Link  913 at Wed Feb  8 13:52:16 2023, MaxMem=   754974720 cpu:               9.7 elap:               2.5
 (Enter /opt/cluster/programs/g16-c.01/g16/l601.exe)
 Copying SCF densities to generalized density rwf, IOpCl= 0 IROHF=0.

 **********************************************************************

            Population analysis using the SCF Density.

 **********************************************************************

 Orbital symmetries:
       Occupied  (A1) (A1) (B2) (A1) (B1)
       Virtual   (A1) (B2) (A1) (B1) (A1) (B2) (B2) (A1) (A2) (B1)
                 (A1) (B2) (A1) (B2) (B2) (A1) (A1) (B1) (A2) (A1)
                 (B1) (A1) (B1) (B2) (A2) (A1) (B2) (A1) (B2) (B1)
                 (B2) (A2) (A1) (B2) (A1) (A2) (B1) (A1) (B2) (B2)
                 (A1) (B1) (A2) (A1) (A1) (B1) (B2) (A1) (B2) (B1)
                 (B2) (A1) (A2) (A1) (B2) (A1) (B1) (B1) (A2) (B2)
                 (A1) (A2) (B1) (B2) (A1) (B2) (B2) (A2) (A1) (B2)
                 (B1) (A1) (A1) (B2) (B1) (A1) (B2) (B1) (B1) (A2)
                 (A2) (A1) (A1) (A1) (B2) (B2) (A1)
 The electronic state is 1-A1.
 Alpha  occ. eigenvalues --  -20.57305  -1.36374  -0.68713  -0.61273  -0.51412
 Alpha virt. eigenvalues --    0.02837   0.04857   0.13345   0.16079   0.17732
 Alpha virt. eigenvalues --    0.18655   0.22301   0.24698   0.27051   0.28686
 Alpha virt. eigenvalues --    0.30346   0.36922   0.43443   0.46543   0.59121
 Alpha virt. eigenvalues --    0.66966   0.69942   0.72481   0.73408   0.84648
 Alpha virt. eigenvalues --    0.86570   0.89780   0.90162   0.91255   0.92527
 Alpha virt. eigenvalues --    0.93982   0.94776   1.01834   1.04002   1.07735
 Alpha virt. eigenvalues --    1.10808   1.18558   1.20225   1.26538   1.44688
 Alpha virt. eigenvalues --    1.52190   1.54805   1.81894   1.91883   1.96633
 Alpha virt. eigenvalues --    2.15600   2.27019   2.31741   2.33544   2.40286
 Alpha virt. eigenvalues --    2.41574   2.45182   2.51268   2.66042   2.70316
 Alpha virt. eigenvalues --    2.70896   2.84738   2.87805   3.54473   3.69266
 Alpha virt. eigenvalues --    4.02677   4.05132   4.08776   4.13187   4.33778
 Alpha virt. eigenvalues --    4.38625   4.38843   4.41601   4.60178   4.77702
 Alpha virt. eigenvalues --    4.88661   5.11474   5.12933   5.21304   5.45887
 Alpha virt. eigenvalues --    5.56124   5.56797   6.27690   6.45906   6.69288
 Alpha virt. eigenvalues --    7.07103   7.10006   7.13970   7.27555   7.31261
 Alpha virt. eigenvalues --    7.33297   7.45458   7.50091   7.71574   8.00774
 Alpha virt. eigenvalues --    8.89092  15.83293
          Condensed to atoms (all electrons):
               1          2          3
     1  O    7.926799   0.260917   0.260917
     2  H    0.260917   0.484365   0.030401
     3  H    0.260917   0.030401   0.484365
 Mulliken charges:
               1
     1  O   -0.448633
     2  H    0.224317
     3  H    0.224317
 Sum of Mulliken charges =  -0.00000
 Mulliken charges with hydrogens summed into heavy atoms:
               1
     1  O   -0.000000
 Electronic spatial extent (au):  <R**2>=             19.4639
 Charge=             -0.0000 electrons
 Dipole moment (field-independent basis, Debye):
    X=             -0.0000    Y=             -0.0000    Z=             -2.2011  Tot=              2.2011
 Quadrupole moment (field-independent basis, Debye-Ang):
   XX=             -7.5438   YY=             -4.8674   ZZ=             -5.8102
   XY=              0.0000   XZ=              0.0000   YZ=              0.0000
 Traceless Quadrupole moment (field-independent basis, Debye-Ang):
   XX=             -1.4700   YY=              1.2064   ZZ=              0.2636
   XY=              0.0000   XZ=              0.0000   YZ=              0.0000
 Octapole moment (field-independent basis, Debye-Ang**2):
  XXX=              0.0000  YYY=             -0.0000  ZZZ=             -1.4360  XYY=             -0.0000
  XXY=             -0.0000  XXZ=             -0.2782  XZZ=             -0.0000  YZZ=             -0.0000
  YYZ=             -1.3090  XYZ=             -0.0000
 Hexadecapole moment (field-independent basis, Debye-Ang**3):
 XXXX=             -6.6692 YYYY=             -6.3647 ZZZZ=             -7.2529 XXXY=             -0.0000
 XXXZ=             -0.0000 YYYX=             -0.0000 YYYZ=              0.0000 ZZZX=             -0.0000
 ZZZY=              0.0000 XXYY=             -2.3776 XXZZ=             -2.4093 YYZZ=             -1.7889
 XXYZ=             -0.0000 YYXZ=              0.0000 ZZXY=              0.0000
 N-N= 9.217475873854D+00 E-N=-1.990169690040D+02  KE= 7.597557982339D+01
 Symmetry A1   KE= 6.785177852146D+01
 Symmetry A2   KE=-1.940690128274D-20
 Symmetry B1   KE= 4.478785142288D+00
 Symmetry B2   KE= 3.645016159642D+00
 Leave Link  601 at Wed Feb  8 13:52:16 2023, MaxMem=   754974720 cpu:               0.9 elap:               0.3
 (Enter /opt/cluster/programs/g16-c.01/g16/l9999.exe)
 Unable to Open any file for archive entry.
 1\1\GINC-NODE58\SP\RCCSD(T)-FC\Aug-CC-pVTZ\H2O1\BOITTIER\08-Feb-2023\0
 \\#P CCSD(T)/aug-cc-pVTZ scf(maxcycle=200)\\Gaussian input\\0,1\O,0,0.
 ,0.11751,0.\H,0,0.7578497316,-0.4701504329,0.\H,0,-0.5935943847,-0.635
 7009309,0.\\Version=ES64L-G16RevC.01\State=1-A1\HF=-76.0539925\MP2=-76
 .3240606\MP3=-76.3263566\MP4D=-76.3311323\MP4DQ=-76.3269916\MP4SDQ=-76
 .3289514\CCSD=-76.3284503\CCSD(T)=-76.3372383\RMSD=3.543e-09\PG=C02V [
 C2(O1),SGV(H2)]\\@
 The archive entry for this job was punched.


 NOT WHAT WE DID SHALL BE THE TEST
 WHEN ACT AND WILL ARE DONE,
 BUT WHAT OUR LORD INFERS WE WOULD-
 HAD WE DIVINER BEEN.
           EMILY DICKINSON  POEMS NO. CLXXV
 Job cpu time:       0 days  0 hours  0 minutes 18.5 seconds.
 Elapsed time:       0 days  0 hours  0 minutes  5.0 seconds.
 File lengths (MBytes):  RWF=     64 Int=      0 D2E=      0 Chk=      2 Scr=      1
 Normal termination of Gaussian 16 at Wed Feb  8 13:52:16 2023.
