 Entering Gaussian System, Link 0=/opt/cluster/programs/g16-c.01/g16/g16
 Input=/scratch/boittier/jobs/tmp.7261974/gaussian_35_water_wb97_ptz.com
 Output=/scratch/boittier/jobs/tmp.7261974/gaussian_35_water_wb97_ptz.out
 Initial command:
 /opt/cluster/programs/g16-c.01/g16/l1.exe "/scratch/boittier/jobs/tmp.7261974/Gau-104060.inp" -scrdir="/scratch/boittier/jobs/tmp.7261974/"
 Entering Link 1 = /opt/cluster/programs/g16-c.01/g16/l1.exe PID=    104061.
  
 Copyright (c) 1988-2019, Gaussian, Inc.  All Rights Reserved.
  
 This is part of the Gaussian(R) 16 program.  It is based on
 the Gaussian(R) 09 system (copyright 2009, Gaussian, Inc.),
 the Gaussian(R) 03 system (copyright 2003, Gaussian, Inc.),
 the Gaussian(R) 98 system (copyright 1998, Gaussian, Inc.),
 the Gaussian(R) 94 system (copyright 1995, Gaussian, Inc.),
 the Gaussian 92(TM) system (copyright 1992, Gaussian, Inc.),
 the Gaussian 90(TM) system (copyright 1990, Gaussian, Inc.),
 the Gaussian 88(TM) system (copyright 1988, Gaussian, Inc.),
 the Gaussian 86(TM) system (copyright 1986, Carnegie Mellon
 University), and the Gaussian 82(TM) system (copyright 1983,
 Carnegie Mellon University). Gaussian is a federally registered
 trademark of Gaussian, Inc.
  
 This software contains proprietary and confidential information,
 including trade secrets, belonging to Gaussian, Inc.
  
 This software is provided under written license and may be
 used, copied, transmitted, or stored only in accord with that
 written license.
  
 The following legend is applicable only to US Government
 contracts under FAR:
  
                    RESTRICTED RIGHTS LEGEND
  
 Use, reproduction and disclosure by the US Government is
 subject to restrictions as set forth in subparagraphs (a)
 and (c) of the Commercial Computer Software - Restricted
 Rights clause in FAR 52.227-19.
  
 Gaussian, Inc.
 340 Quinnipiac St., Bldg. 40, Wallingford CT 06492
  
  
 ---------------------------------------------------------------
 Warning -- This program may not be used in any manner that
 competes with the business of Gaussian, Inc. or will provide
 assistance to any competitor of Gaussian, Inc.  The licensee
 of this program is prohibited from giving any competitor of
 Gaussian, Inc. access to this program.  By using this program,
 the user acknowledges that Gaussian, Inc. is engaged in the
 business of creating and licensing software in the field of
 computational chemistry and represents and warrants to the
 licensee that it is not a competitor of Gaussian, Inc. and that
 it will not use this program in any manner prohibited above.
 ---------------------------------------------------------------
  

 Cite this work as:
 Gaussian 16, Revision C.01,
 M. J. Frisch, G. W. Trucks, H. B. Schlegel, G. E. Scuseria, 
 M. A. Robb, J. R. Cheeseman, G. Scalmani, V. Barone, 
 G. A. Petersson, H. Nakatsuji, X. Li, M. Caricato, A. V. Marenich, 
 J. Bloino, B. G. Janesko, R. Gomperts, B. Mennucci, H. P. Hratchian, 
 J. V. Ortiz, A. F. Izmaylov, J. L. Sonnenberg, D. Williams-Young, 
 F. Ding, F. Lipparini, F. Egidi, J. Goings, B. Peng, A. Petrone, 
 T. Henderson, D. Ranasinghe, V. G. Zakrzewski, J. Gao, N. Rega, 
 G. Zheng, W. Liang, M. Hada, M. Ehara, K. Toyota, R. Fukuda, 
 J. Hasegawa, M. Ishida, T. Nakajima, Y. Honda, O. Kitao, H. Nakai, 
 T. Vreven, K. Throssell, J. A. Montgomery, Jr., J. E. Peralta, 
 F. Ogliaro, M. J. Bearpark, J. J. Heyd, E. N. Brothers, K. N. Kudin, 
 V. N. Staroverov, T. A. Keith, R. Kobayashi, J. Normand, 
 K. Raghavachari, A. P. Rendell, J. C. Burant, S. S. Iyengar, 
 J. Tomasi, M. Cossi, J. M. Millam, M. Klene, C. Adamo, R. Cammi, 
 J. W. Ochterski, R. L. Martin, K. Morokuma, O. Farkas, 
 J. B. Foresman, and D. J. Fox, Gaussian, Inc., Wallingford CT, 2019.
 
 ******************************************
 Gaussian 16:  ES64L-G16RevC.01  3-Jul-2019
                 8-Feb-2023 
 ******************************************
 %nproc=4
 Will use up to    4 processors via shared memory.
 %mem=5760MB
 %chk=gaussian_35_water_wb97_ptz.chk
 ------------------------------------
 #P wB97XD/6-311g** scf(maxcycle=200)
 ------------------------------------
 1/38=1,172=1/1;
 2/12=2,17=6,18=5,40=1/2;
 3/5=4,6=6,7=101,11=2,25=1,30=1,74=-58/1,2,3;
 4//1;
 5/5=2,7=200,38=5/2;
 6/7=2,8=2,9=2,10=2,28=1/1;
 99/5=1,9=1/99;
 Leave Link    1 at Wed Feb  8 14:40:24 2023, MaxMem=   754974720 cpu:               0.2 elap:               0.1
 (Enter /opt/cluster/programs/g16-c.01/g16/l101.exe)
 --------------
 Gaussian input
 --------------
 Symbolic Z-matrix:
 Charge =  0 Multiplicity = 1
 O                     0.        0.11751   0. 
 H                     0.71834  -0.43951   0. 
 H                    -0.84863  -0.32915   0. 
 
 ITRead=  0  0  0
 MicOpt= -1 -1 -1
 NAtoms=      3 NQM=        3 NQMF=       0 NMMI=      0 NMMIF=      0
                NMic=       0 NMicF=      0.
                    Isotopes and Nuclear Properties:
 (Nuclear quadrupole moments (NQMom) in fm**2, nuclear magnetic moments (NMagM)
  in nuclear magnetons)

  Atom         1           2           3
 IAtWgt=          16           1           1
 AtmWgt=  15.9949146   1.0078250   1.0078250
 NucSpn=           0           1           1
 AtZEff=  -0.0000000  -0.0000000  -0.0000000
 NQMom=    0.0000000   0.0000000   0.0000000
 NMagM=    0.0000000   2.7928460   2.7928460
 AtZNuc=   8.0000000   1.0000000   1.0000000
 Leave Link  101 at Wed Feb  8 14:40:24 2023, MaxMem=   754974720 cpu:               0.6 elap:               0.2
 (Enter /opt/cluster/programs/g16-c.01/g16/l202.exe)
                          Input orientation:                          
 ---------------------------------------------------------------------
 Center     Atomic      Atomic             Coordinates (Angstroms)
 Number     Number       Type             X           Y           Z
 ---------------------------------------------------------------------
      1          8           0        0.000000    0.117510    0.000000
      2          1           0        0.718337   -0.439511    0.000000
      3          1           0       -0.848634   -0.329146    0.000000
 ---------------------------------------------------------------------
                    Distance matrix (angstroms):
                    1          2          3
     1  O    0.000000
     2  H    0.909000   0.000000
     3  H    0.959000   1.570853   0.000000
 Stoichiometry    H2O
 Framework group  CS[SG(H2O)]
 Deg. of freedom     3
 Full point group                 CS      NOp   2
 Largest Abelian subgroup         CS      NOp   2
 Largest concise Abelian subgroup C1      NOp   1
                         Standard orientation:                         
 ---------------------------------------------------------------------
 Center     Atomic      Atomic             Coordinates (Angstroms)
 Number     Number       Type             X           Y           Z
 ---------------------------------------------------------------------
      1          8           0        0.000000    0.101210    0.000000
      2          1           0        0.784070   -0.358698    0.000000
      3          1           0       -0.784070   -0.450981    0.000000
 ---------------------------------------------------------------------
 Rotational constants (GHZ):        1108.4964819         405.6200032         296.9575663
 Leave Link  202 at Wed Feb  8 14:40:24 2023, MaxMem=   754974720 cpu:               0.0 elap:               0.0
 (Enter /opt/cluster/programs/g16-c.01/g16/l301.exe)
 Standard basis: 6-311G(d,p) (5D, 7F)
 Ernie: Thresh=  0.10000D-02 Tol=  0.10000D-05 Strict=F.
 There are    24 symmetry adapted cartesian basis functions of A'  symmetry.
 There are     7 symmetry adapted cartesian basis functions of A"  symmetry.
 There are    23 symmetry adapted basis functions of A'  symmetry.
 There are     7 symmetry adapted basis functions of A"  symmetry.
    30 basis functions,    48 primitive gaussians,    31 cartesian basis functions
     5 alpha electrons        5 beta electrons
       nuclear repulsion energy         9.4085061318 Hartrees.
 IExCor= 4639 DFT=T Ex+Corr=wB97XD ExCW=0 ScaHFX=  1.000000
 ScaDFX=  1.000000  1.000000  1.000000  1.000000 ScalE2=  1.000000  1.000000
 IRadAn=      5 IRanWt=     -1 IRanGd=            0 ICorTp=0 IEmpDi=121
 HFx  wShort=  0.000000 wLong=  0.200000 cFull=  0.222036 cShort=  0.000000 cLong=  0.777964
 DFx  wShort=  0.000000 wLong=  0.200000 cFull=  0.000000 cShort=  0.000000 cLong=  1.000000
 NAtoms=    3 NActive=    3 NUniq=    3 SFac= 1.00D+00 NAtFMM=   60 NAOKFM=F Big=F
 Integral buffers will be    131072 words long.
 Raffenetti 2 integral format.
 Two-electron integral symmetry is turned on.
 R6Disp:  Grimme-D2 Dispersion energy=       -0.0000328960 Hartrees.
 Nuclear repulsion after empirical dispersion term =        9.4084732358 Hartrees.
 Leave Link  301 at Wed Feb  8 14:40:24 2023, MaxMem=   754974720 cpu:               0.2 elap:               0.1
 (Enter /opt/cluster/programs/g16-c.01/g16/l302.exe)
 NPDir=0 NMtPBC=     1 NCelOv=     1 NCel=       1 NClECP=     1 NCelD=      1
         NCelK=      1 NCelE2=     1 NClLst=     1 CellRange=     0.0.
 One-electron integrals computed using PRISM.
 One-electron integral symmetry used in STVInt
 NBasis=    30 RedAO= T EigKep=  1.78D-02  NBF=    23     7
 NBsUse=    30 1.00D-06 EigRej= -1.00D+00 NBFU=    23     7
 Precomputing XC quadrature grid using
 IXCGrd= 4 IRadAn=           5 IRanWt=          -1 IRanGd=           0 AccXCQ= 0.00D+00.
 Generated NRdTot=       0 NPtTot=           0 NUsed=           0 NTot=          32
 NSgBfM=    31    31    31    31    31 MxSgAt=     3 MxSgA2=     3.
 Leave Link  302 at Wed Feb  8 14:40:24 2023, MaxMem=   754974720 cpu:               1.3 elap:               0.4
 (Enter /opt/cluster/programs/g16-c.01/g16/l303.exe)
 DipDrv:  MaxL=1.
 Leave Link  303 at Wed Feb  8 14:40:25 2023, MaxMem=   754974720 cpu:               0.5 elap:               0.3
 (Enter /opt/cluster/programs/g16-c.01/g16/l401.exe)
 ExpMin= 1.03D-01 ExpMax= 8.59D+03 ExpMxC= 1.30D+03 IAcc=3 IRadAn=         5 AccDes= 0.00D+00
 Harris functional with IExCor= 4639 and IRadAn=       5 diagonalized for initial guess.
 HarFok:  IExCor= 4639 AccDes= 0.00D+00 IRadAn=         5 IDoV= 1 UseB2=F ITyADJ=14
 ICtDFT=  3500011 ScaDFX=  1.000000  1.000000  1.000000  1.000000
 FoFCou: FMM=F IPFlag=           0 FMFlag=      100000 FMFlg1=           0
         NFxFlg=           0 DoJE=T BraDBF=F KetDBF=T FulRan=T
         wScrn=  0.000000 ICntrl=       500 IOpCl=  0 I1Cent=   200000004 NGrid=           0
         NMat0=    1 NMatS0=      1 NMatT0=    0 NMatD0=    1 NMtDS0=    0 NMtDT0=    0
 Petite list used in FoFCou.
 Harris En= -73.6041207421700    
 JPrj=0 DoOrth=F DoCkMO=F.
 Initial guess orbital symmetries:
       Occupied  (A') (A') (A') (A') (A")
       Virtual   (A') (A') (A') (A') (A') (A") (A') (A') (A") (A')
                 (A") (A') (A') (A') (A') (A') (A") (A") (A') (A')
                 (A') (A") (A') (A') (A')
 The electronic state of the initial guess is 1-A'.
 Leave Link  401 at Wed Feb  8 14:40:26 2023, MaxMem=   754974720 cpu:               2.8 elap:               1.4
 (Enter /opt/cluster/programs/g16-c.01/g16/l502.exe)
 Keep R1 ints in memory in symmetry-blocked form, NReq=3688183.
 FoFCou: FMM=F IPFlag=           0 FMFlag=           0 FMFlg1=           0
         NFxFlg=           0 DoJE=F BraDBF=F KetDBF=F FulRan=T
         wScrn=  0.000000 ICntrl=       600 IOpCl=  0 I1Cent=           0 NGrid=           0
         NMat0=    1 NMatS0=    465 NMatT0=    0 NMatD0=    1 NMtDS0=    0 NMtDT0=    0
 Petite list used in FoFCou.
 Closed shell SCF:
 Using DIIS extrapolation, IDIIS=  1040.
 NGot=   754974720 LenX=   754911268 LenY=   754909866
 Requested convergence on RMS density matrix=1.00D-08 within 200 cycles.
 Requested convergence on MAX density matrix=1.00D-06.
 Requested convergence on             energy=1.00D-06.
 No special actions if energy rises.
 Integral accuracy reduced to 1.0D-05 until final iterations.

 Cycle   1  Pass 0  IDiag  1:
 E= -76.4091153081659    
 DIIS: error= 8.37D-02 at cycle   1 NSaved=   1.
 NSaved= 1 IEnMin= 1 EnMin= -76.4091153081659     IErMin= 1 ErrMin= 8.37D-02
 ErrMax= 8.37D-02  0.00D+00 EMaxC= 1.00D-01 BMatC= 1.28D-01 BMatP= 1.28D-01
 IDIUse=3 WtCom= 1.63D-01 WtEn= 8.37D-01
 Coeff-Com:  0.100D+01
 Coeff-En:   0.100D+01
 Coeff:      0.100D+01
 Gap=     0.494 Goal=   None    Shift=    0.000
 GapD=    0.494 DampG=2.000 DampE=0.500 DampFc=1.0000 IDamp=-1.
 RMSDP=2.23D-03 MaxDP=1.79D-02              OVMax= 3.59D-02

 Cycle   2  Pass 0  IDiag  1:
 E= -76.4180174634410     Delta-E=       -0.008902155275 Rises=F Damp=F
 DIIS: error= 7.59D-03 at cycle   2 NSaved=   2.
 NSaved= 2 IEnMin= 2 EnMin= -76.4180174634410     IErMin= 2 ErrMin= 7.59D-03
 ErrMax= 7.59D-03  0.00D+00 EMaxC= 1.00D-01 BMatC= 1.28D-03 BMatP= 1.28D-01
 IDIUse=3 WtCom= 9.24D-01 WtEn= 7.59D-02
 Coeff-Com:  0.432D-01 0.957D+00
 Coeff-En:   0.000D+00 0.100D+01
 Coeff:      0.399D-01 0.960D+00
 Gap=     0.522 Goal=   None    Shift=    0.000
 RMSDP=9.50D-04 MaxDP=1.27D-02 DE=-8.90D-03 OVMax= 1.20D-02

 Cycle   3  Pass 0  IDiag  1:
 E= -76.4182278597543     Delta-E=       -0.000210396313 Rises=F Damp=F
 DIIS: error= 6.55D-03 at cycle   3 NSaved=   3.
 NSaved= 3 IEnMin= 3 EnMin= -76.4182278597543     IErMin= 3 ErrMin= 6.55D-03
 ErrMax= 6.55D-03  0.00D+00 EMaxC= 1.00D-01 BMatC= 9.11D-04 BMatP= 1.28D-03
 IDIUse=3 WtCom= 9.34D-01 WtEn= 6.55D-02
 Coeff-Com:  0.204D-01 0.465D+00 0.514D+00
 Coeff-En:   0.000D+00 0.410D+00 0.590D+00
 Coeff:      0.191D-01 0.462D+00 0.519D+00
 Gap=     0.511 Goal=   None    Shift=    0.000
 RMSDP=4.47D-04 MaxDP=5.29D-03 DE=-2.10D-04 OVMax= 6.17D-03

 Cycle   4  Pass 0  IDiag  1:
 E= -76.4187678276925     Delta-E=       -0.000539967938 Rises=F Damp=F
 DIIS: error= 5.00D-04 at cycle   4 NSaved=   4.
 NSaved= 4 IEnMin= 4 EnMin= -76.4187678276925     IErMin= 4 ErrMin= 5.00D-04
 ErrMax= 5.00D-04  0.00D+00 EMaxC= 1.00D-01 BMatC= 4.34D-06 BMatP= 9.11D-04
 IDIUse=3 WtCom= 9.95D-01 WtEn= 5.00D-03
 Coeff-Com:  0.164D-02 0.476D-01 0.931D-01 0.858D+00
 Coeff-En:   0.000D+00 0.000D+00 0.000D+00 0.100D+01
 Coeff:      0.163D-02 0.474D-01 0.927D-01 0.858D+00
 Gap=     0.511 Goal=   None    Shift=    0.000
 RMSDP=4.93D-05 MaxDP=5.55D-04 DE=-5.40D-04 OVMax= 4.53D-04

 Cycle   5  Pass 0  IDiag  1:
 E= -76.4187707515487     Delta-E=       -0.000002923856 Rises=F Damp=F
 DIIS: error= 6.16D-05 at cycle   5 NSaved=   5.
 NSaved= 5 IEnMin= 5 EnMin= -76.4187707515487     IErMin= 5 ErrMin= 6.16D-05
 ErrMax= 6.16D-05  0.00D+00 EMaxC= 1.00D-01 BMatC= 6.79D-08 BMatP= 4.34D-06
 IDIUse=1 WtCom= 1.00D+00 WtEn= 0.00D+00
 Coeff-Com: -0.728D-03-0.193D-01-0.214D-01-0.436D-01 0.109D+01
 Coeff:     -0.728D-03-0.193D-01-0.214D-01-0.436D-01 0.109D+01
 Gap=     0.511 Goal=   None    Shift=    0.000
 RMSDP=2.00D-05 MaxDP=2.01D-04 DE=-2.92D-06 OVMax= 3.00D-04

 Cycle   6  Pass 0  IDiag  1:
 E= -76.4187709070024     Delta-E=       -0.000000155454 Rises=F Damp=F
 DIIS: error= 1.06D-05 at cycle   6 NSaved=   6.
 NSaved= 6 IEnMin= 6 EnMin= -76.4187709070024     IErMin= 6 ErrMin= 1.06D-05
 ErrMax= 1.06D-05  0.00D+00 EMaxC= 1.00D-01 BMatC= 3.52D-09 BMatP= 6.79D-08
 IDIUse=1 WtCom= 1.00D+00 WtEn= 0.00D+00
 Coeff-Com:  0.103D-03 0.230D-02 0.311D-02-0.133D-01-0.176D+00 0.118D+01
 Coeff:      0.103D-03 0.230D-02 0.311D-02-0.133D-01-0.176D+00 0.118D+01
 Gap=     0.511 Goal=   None    Shift=    0.000
 RMSDP=4.90D-06 MaxDP=5.64D-05 DE=-1.55D-07 OVMax= 7.62D-05

 Initial convergence to 1.0D-05 achieved.  Increase integral accuracy.
 Cycle   7  Pass 1  IDiag  1:
 E= -76.4187744343512     Delta-E=       -0.000003527349 Rises=F Damp=F
 DIIS: error= 7.71D-06 at cycle   1 NSaved=   1.
 NSaved= 1 IEnMin= 1 EnMin= -76.4187744343512     IErMin= 1 ErrMin= 7.71D-06
 ErrMax= 7.71D-06  0.00D+00 EMaxC= 1.00D-01 BMatC= 2.44D-09 BMatP= 2.44D-09
 IDIUse=1 WtCom= 1.00D+00 WtEn= 0.00D+00
 Coeff-Com:  0.100D+01
 Coeff:      0.100D+01
 Gap=     0.511 Goal=   None    Shift=    0.000
 RMSDP=4.90D-06 MaxDP=5.64D-05 DE=-3.53D-06 OVMax= 1.61D-05

 Cycle   8  Pass 1  IDiag  1:
 E= -76.4187744363965     Delta-E=       -0.000000002045 Rises=F Damp=F
 DIIS: error= 8.07D-07 at cycle   2 NSaved=   2.
 NSaved= 2 IEnMin= 2 EnMin= -76.4187744363965     IErMin= 2 ErrMin= 8.07D-07
 ErrMax= 8.07D-07  0.00D+00 EMaxC= 1.00D-01 BMatC= 4.20D-11 BMatP= 2.44D-09
 IDIUse=1 WtCom= 1.00D+00 WtEn= 0.00D+00
 Coeff-Com: -0.591D-01 0.106D+01
 Coeff:     -0.591D-01 0.106D+01
 Gap=     0.511 Goal=   None    Shift=    0.000
 RMSDP=3.17D-07 MaxDP=2.88D-06 DE=-2.05D-09 OVMax= 5.72D-06

 Cycle   9  Pass 1  IDiag  1:
 E= -76.4187744364660     Delta-E=       -0.000000000069 Rises=F Damp=F
 DIIS: error= 3.40D-07 at cycle   3 NSaved=   3.
 NSaved= 3 IEnMin= 3 EnMin= -76.4187744364660     IErMin= 3 ErrMin= 3.40D-07
 ErrMax= 3.40D-07  0.00D+00 EMaxC= 1.00D-01 BMatC= 3.34D-12 BMatP= 4.20D-11
 IDIUse=1 WtCom= 1.00D+00 WtEn= 0.00D+00
 Coeff-Com: -0.205D-01 0.114D+00 0.907D+00
 Coeff:     -0.205D-01 0.114D+00 0.907D+00
 Gap=     0.511 Goal=   None    Shift=    0.000
 RMSDP=7.93D-08 MaxDP=4.97D-07 DE=-6.94D-11 OVMax= 1.51D-06

 Cycle  10  Pass 1  IDiag  1:
 E= -76.4187744364715     Delta-E=       -0.000000000006 Rises=F Damp=F
 DIIS: error= 1.50D-07 at cycle   4 NSaved=   4.
 NSaved= 4 IEnMin= 4 EnMin= -76.4187744364715     IErMin= 4 ErrMin= 1.50D-07
 ErrMax= 1.50D-07  0.00D+00 EMaxC= 1.00D-01 BMatC= 6.65D-13 BMatP= 3.34D-12
 IDIUse=1 WtCom= 1.00D+00 WtEn= 0.00D+00
 Coeff-Com: -0.131D-02-0.327D-01 0.223D+00 0.811D+00
 Coeff:     -0.131D-02-0.327D-01 0.223D+00 0.811D+00
 Gap=     0.511 Goal=   None    Shift=    0.000
 RMSDP=3.76D-08 MaxDP=4.52D-07 DE=-5.57D-12 OVMax= 7.51D-07

 Cycle  11  Pass 1  IDiag  1:
 E= -76.4187744364725     Delta-E=       -0.000000000001 Rises=F Damp=F
 DIIS: error= 9.59D-08 at cycle   5 NSaved=   5.
 NSaved= 5 IEnMin= 5 EnMin= -76.4187744364725     IErMin= 5 ErrMin= 9.59D-08
 ErrMax= 9.59D-08  0.00D+00 EMaxC= 1.00D-01 BMatC= 1.87D-13 BMatP= 6.65D-13
 IDIUse=1 WtCom= 1.00D+00 WtEn= 0.00D+00
 Coeff-Com:  0.380D-02-0.388D-01-0.114D+00 0.326D+00 0.823D+00
 Coeff:      0.380D-02-0.388D-01-0.114D+00 0.326D+00 0.823D+00
 Gap=     0.511 Goal=   None    Shift=    0.000
 RMSDP=1.80D-08 MaxDP=1.29D-07 DE=-9.38D-13 OVMax= 3.41D-07

 Cycle  12  Pass 1  IDiag  1:
 E= -76.4187744364728     Delta-E=       -0.000000000000 Rises=F Damp=F
 DIIS: error= 5.74D-09 at cycle   6 NSaved=   6.
 NSaved= 6 IEnMin= 6 EnMin= -76.4187744364728     IErMin= 6 ErrMin= 5.74D-09
 ErrMax= 5.74D-09  0.00D+00 EMaxC= 1.00D-01 BMatC= 9.93D-16 BMatP= 1.87D-13
 IDIUse=1 WtCom= 1.00D+00 WtEn= 0.00D+00
 Coeff-Com:  0.120D-03 0.147D-02-0.105D-01-0.304D-01-0.226D-01 0.106D+01
 Coeff:      0.120D-03 0.147D-02-0.105D-01-0.304D-01-0.226D-01 0.106D+01
 Gap=     0.511 Goal=   None    Shift=    0.000
 RMSDP=3.15D-09 MaxDP=3.47D-08 DE=-2.98D-13 OVMax= 5.82D-08

 SCF Done:  E(RwB97XD) =  -76.4187744365     A.U. after   12 cycles
            NFock= 12  Conv=0.32D-08     -V/T= 2.0005
 KE= 7.637790069507D+01 PE=-2.000210584356D+02 EE= 3.781591006826D+01
 Leave Link  502 at Wed Feb  8 14:40:28 2023, MaxMem=   754974720 cpu:               6.0 elap:               2.0
 (Enter /opt/cluster/programs/g16-c.01/g16/l601.exe)
 Copying SCF densities to generalized density rwf, IOpCl= 0 IROHF=0.

 **********************************************************************

            Population analysis using the SCF Density.

 **********************************************************************

 Orbital symmetries:
       Occupied  (A') (A') (A') (A') (A")
       Virtual   (A') (A') (A') (A') (A') (A") (A') (A') (A") (A')
                 (A") (A') (A') (A') (A') (A') (A") (A") (A') (A')
                 (A') (A") (A') (A') (A')
 The electronic state is 1-A'.
 Alpha  occ. eigenvalues --  -19.21633  -1.10633  -0.63691  -0.44544  -0.38559
 Alpha virt. eigenvalues --    0.12573   0.19736   0.48127   0.51080   0.84885
 Alpha virt. eigenvalues --    0.85601   0.95059   1.14818   1.32805   1.47051
 Alpha virt. eigenvalues --    1.60551   1.70093   2.09281   2.13784   2.44605
 Alpha virt. eigenvalues --    2.53655   3.16589   3.31644   3.39079   3.80009
 Alpha virt. eigenvalues --    3.90409   4.89073   5.25678   5.89257  50.03291
          Condensed to atoms (all electrons):
               1          2          3
     1  O    7.846062   0.342371   0.331980
     2  H    0.342371   0.428382  -0.031185
     3  H    0.331980  -0.031185   0.439224
 Mulliken charges:
               1
     1  O   -0.520413
     2  H    0.260432
     3  H    0.259981
 Sum of Mulliken charges =  -0.00000
 Mulliken charges with hydrogens summed into heavy atoms:
               1
     1  O   -0.000000
 Electronic spatial extent (au):  <R**2>=             18.6866
 Charge=             -0.0000 electrons
 Dipole moment (field-independent basis, Debye):
    X=              0.0381    Y=             -1.9319    Z=              0.0000  Tot=              1.9322
 Quadrupole moment (field-independent basis, Debye-Ang):
   XX=             -3.8590   YY=             -6.2565   ZZ=             -7.1244
   XY=              0.1624   XZ=              0.0000   YZ=              0.0000
 Traceless Quadrupole moment (field-independent basis, Debye-Ang):
   XX=              1.8876   YY=             -0.5098   ZZ=             -1.3778
   XY=              0.1624   XZ=              0.0000   YZ=              0.0000
 Octapole moment (field-independent basis, Debye-Ang**2):
  XXX=              0.0867  YYY=             -1.1297  ZZZ=              0.0000  XYY=             -0.0780
  XXY=             -1.2248  XXZ=              0.0000  XZZ=              0.0354  YZZ=             -0.3189
  YYZ=              0.0000  XYZ=              0.0000
 Hexadecapole moment (field-independent basis, Debye-Ang**3):
 XXXX=             -5.3058 YYYY=             -5.9699 ZZZZ=             -5.1935 XXXY=              0.0056
 XXXZ=              0.0000 YYYX=             -0.0187 YYYZ=              0.0000 ZZZX=              0.0000
 ZZZY=              0.0000 XXYY=             -1.6978 XXZZ=             -2.0880 YYZZ=             -1.8933
 XXYZ=              0.0000 YYXZ=              0.0000 ZZXY=             -0.0372
 N-N= 9.408473235761D+00 E-N=-2.000210583901D+02  KE= 7.637790069507D+01
 Symmetry A'   KE= 7.175523916479D+01
 Symmetry A"   KE= 4.622661530287D+00
 No NMR shielding tensors so no spin-rotation constants.
 Leave Link  601 at Wed Feb  8 14:40:29 2023, MaxMem=   754974720 cpu:               1.4 elap:               0.7
 (Enter /opt/cluster/programs/g16-c.01/g16/l9999.exe)
 Unable to Open any file for archive entry.
 1\1\GINC-NODE64\SP\RwB97XD\6-311G(d,p)\H2O1\BOITTIER\08-Feb-2023\0\\#P
  wB97XD/6-311g** scf(maxcycle=200)\\Gaussian input\\0,1\O,0,0.,0.11751
 ,0.\H,0,0.7183372325,-0.4395112028,0.\H,0,-0.8486339394,-0.3291458372,
 0.\\Version=ES64L-G16RevC.01\State=1-A'\HF=-76.4187744\RMSD=3.155e-09\
 Dipole=-0.0829955,-0.755656,0.\Quadrupole=1.4046885,-0.3803426,-1.0243
 459,-0.1108425,0.,0.\PG=CS [SG(H2O1)]\\@
 The archive entry for this job was punched.


 THE PROMISED LAND ALWAYS LIES ON THE OTHER SIDE OF A WILDERNESS.

                         -- HAVELOCK ELLIS
 Job cpu time:       0 days  0 hours  0 minutes 13.2 seconds.
 Elapsed time:       0 days  0 hours  0 minutes  5.3 seconds.
 File lengths (MBytes):  RWF=      6 Int=      0 D2E=      0 Chk=      1 Scr=      1
 Normal termination of Gaussian 16 at Wed Feb  8 14:40:29 2023.
