 Entering Gaussian System, Link 0=/opt/cluster/programs/g16-c.01/g16/g16
 Input=/scratch/boittier/jobs/tmp.7261710/gaussian_43_water_ccsdt_atz.com
 Output=/scratch/boittier/jobs/tmp.7261710/gaussian_43_water_ccsdt_atz.out
 Initial command:
 /opt/cluster/programs/g16-c.01/g16/l1.exe "/scratch/boittier/jobs/tmp.7261710/Gau-172454.inp" -scrdir="/scratch/boittier/jobs/tmp.7261710/"
 Entering Link 1 = /opt/cluster/programs/g16-c.01/g16/l1.exe PID=    172455.
  
 Copyright (c) 1988-2019, Gaussian, Inc.  All Rights Reserved.
  
 This is part of the Gaussian(R) 16 program.  It is based on
 the Gaussian(R) 09 system (copyright 2009, Gaussian, Inc.),
 the Gaussian(R) 03 system (copyright 2003, Gaussian, Inc.),
 the Gaussian(R) 98 system (copyright 1998, Gaussian, Inc.),
 the Gaussian(R) 94 system (copyright 1995, Gaussian, Inc.),
 the Gaussian 92(TM) system (copyright 1992, Gaussian, Inc.),
 the Gaussian 90(TM) system (copyright 1990, Gaussian, Inc.),
 the Gaussian 88(TM) system (copyright 1988, Gaussian, Inc.),
 the Gaussian 86(TM) system (copyright 1986, Carnegie Mellon
 University), and the Gaussian 82(TM) system (copyright 1983,
 Carnegie Mellon University). Gaussian is a federally registered
 trademark of Gaussian, Inc.
  
 This software contains proprietary and confidential information,
 including trade secrets, belonging to Gaussian, Inc.
  
 This software is provided under written license and may be
 used, copied, transmitted, or stored only in accord with that
 written license.
  
 The following legend is applicable only to US Government
 contracts under FAR:
  
                    RESTRICTED RIGHTS LEGEND
  
 Use, reproduction and disclosure by the US Government is
 subject to restrictions as set forth in subparagraphs (a)
 and (c) of the Commercial Computer Software - Restricted
 Rights clause in FAR 52.227-19.
  
 Gaussian, Inc.
 340 Quinnipiac St., Bldg. 40, Wallingford CT 06492
  
  
 ---------------------------------------------------------------
 Warning -- This program may not be used in any manner that
 competes with the business of Gaussian, Inc. or will provide
 assistance to any competitor of Gaussian, Inc.  The licensee
 of this program is prohibited from giving any competitor of
 Gaussian, Inc. access to this program.  By using this program,
 the user acknowledges that Gaussian, Inc. is engaged in the
 business of creating and licensing software in the field of
 computational chemistry and represents and warrants to the
 licensee that it is not a competitor of Gaussian, Inc. and that
 it will not use this program in any manner prohibited above.
 ---------------------------------------------------------------
  

 Cite this work as:
 Gaussian 16, Revision C.01,
 M. J. Frisch, G. W. Trucks, H. B. Schlegel, G. E. Scuseria, 
 M. A. Robb, J. R. Cheeseman, G. Scalmani, V. Barone, 
 G. A. Petersson, H. Nakatsuji, X. Li, M. Caricato, A. V. Marenich, 
 J. Bloino, B. G. Janesko, R. Gomperts, B. Mennucci, H. P. Hratchian, 
 J. V. Ortiz, A. F. Izmaylov, J. L. Sonnenberg, D. Williams-Young, 
 F. Ding, F. Lipparini, F. Egidi, J. Goings, B. Peng, A. Petrone, 
 T. Henderson, D. Ranasinghe, V. G. Zakrzewski, J. Gao, N. Rega, 
 G. Zheng, W. Liang, M. Hada, M. Ehara, K. Toyota, R. Fukuda, 
 J. Hasegawa, M. Ishida, T. Nakajima, Y. Honda, O. Kitao, H. Nakai, 
 T. Vreven, K. Throssell, J. A. Montgomery, Jr., J. E. Peralta, 
 F. Ogliaro, M. J. Bearpark, J. J. Heyd, E. N. Brothers, K. N. Kudin, 
 V. N. Staroverov, T. A. Keith, R. Kobayashi, J. Normand, 
 K. Raghavachari, A. P. Rendell, J. C. Burant, S. S. Iyengar, 
 J. Tomasi, M. Cossi, J. M. Millam, M. Klene, C. Adamo, R. Cammi, 
 J. W. Ochterski, R. L. Martin, K. Morokuma, O. Farkas, 
 J. B. Foresman, and D. J. Fox, Gaussian, Inc., Wallingford CT, 2019.
 
 ******************************************
 Gaussian 16:  ES64L-G16RevC.01  3-Jul-2019
                 8-Feb-2023 
 ******************************************
 %nproc=4
 Will use up to    4 processors via shared memory.
 %mem=5760MB
 %chk=gaussian_43_water_ccsdt_atz.chk
 ----------------------------------------
 #P CCSD(T)/aug-cc-pVTZ scf(maxcycle=200)
 ----------------------------------------
 1/38=1,172=1/1;
 2/12=2,17=6,18=5,40=1/2;
 3/5=16,6=1,7=10,11=9,25=1,30=1/1,2,3;
 4//1;
 5/5=2,7=200,38=5/2;
 8/6=4,9=120000,10=1/1,4;
 9/5=7,14=2/13;
 6/7=2,8=2,9=2,10=2/1;
 99/5=1,9=1/99;
 Leave Link    1 at Wed Feb  8 13:49:56 2023, MaxMem=   754974720 cpu:               0.1 elap:               0.0
 (Enter /opt/cluster/programs/g16-c.01/g16/l101.exe)
 --------------
 Gaussian input
 --------------
 Symbolic Z-matrix:
 Charge =  0 Multiplicity = 1
 O                     0.        0.11751   0. 
 H                     0.71834  -0.43951   0. 
 H                    -0.62454  -0.67497   0. 
 
 ITRead=  0  0  0
 MicOpt= -1 -1 -1
 NAtoms=      3 NQM=        3 NQMF=       0 NMMI=      0 NMMIF=      0
                NMic=       0 NMicF=      0.
                    Isotopes and Nuclear Properties:
 (Nuclear quadrupole moments (NQMom) in fm**2, nuclear magnetic moments (NMagM)
  in nuclear magnetons)

  Atom         1           2           3
 IAtWgt=          16           1           1
 AtmWgt=  15.9949146   1.0078250   1.0078250
 NucSpn=           0           1           1
 AtZEff=  -0.0000000  -0.0000000  -0.0000000
 NQMom=    0.0000000   0.0000000   0.0000000
 NMagM=    0.0000000   2.7928460   2.7928460
 AtZNuc=   8.0000000   1.0000000   1.0000000
 Leave Link  101 at Wed Feb  8 13:49:56 2023, MaxMem=   754974720 cpu:               0.5 elap:               0.2
 (Enter /opt/cluster/programs/g16-c.01/g16/l202.exe)
                          Input orientation:                          
 ---------------------------------------------------------------------
 Center     Atomic      Atomic             Coordinates (Angstroms)
 Number     Number       Type             X           Y           Z
 ---------------------------------------------------------------------
      1          8           0        0.000000    0.117510    0.000000
      2          1           0        0.718337   -0.439511    0.000000
      3          1           0       -0.624543   -0.674972    0.000000
 ---------------------------------------------------------------------
                    Distance matrix (angstroms):
                    1          2          3
     1  O    0.000000
     2  H    0.909000   0.000000
     3  H    1.009000   1.363367   0.000000
 Stoichiometry    H2O
 Framework group  CS[SG(H2O)]
 Deg. of freedom     3
 Full point group                 CS      NOp   2
 Largest Abelian subgroup         CS      NOp   2
 Largest concise Abelian subgroup C1      NOp   1
                         Standard orientation:                         
 ---------------------------------------------------------------------
 Center     Atomic      Atomic             Coordinates (Angstroms)
 Number     Number       Type             X           Y           Z
 ---------------------------------------------------------------------
      1          8           0        0.000000    0.135276    0.000000
      2          1           0        0.677987   -0.470211    0.000000
      3          1           0       -0.677987   -0.611996    0.000000
 ---------------------------------------------------------------------
 Rotational constants (GHZ):         656.8898082         512.4289806         287.8679262
 Leave Link  202 at Wed Feb  8 13:49:56 2023, MaxMem=   754974720 cpu:               0.0 elap:               0.0
 (Enter /opt/cluster/programs/g16-c.01/g16/l301.exe)
 Standard basis: Aug-CC-pVTZ (5D, 7F)
 Ernie: Thresh=  0.10000D-02 Tol=  0.10000D-05 Strict=F.
 Ernie:  3 primitive shells out of 52 were deleted.
 There are    73 symmetry adapted cartesian basis functions of A'  symmetry.
 There are    32 symmetry adapted cartesian basis functions of A"  symmetry.
 There are    62 symmetry adapted basis functions of A'  symmetry.
 There are    30 symmetry adapted basis functions of A"  symmetry.
    92 basis functions,   126 primitive gaussians,   105 cartesian basis functions
     5 alpha electrons        5 beta electrons
       nuclear repulsion energy         9.2410219845 Hartrees.
 IExCor=    0 DFT=F Ex=HF Corr=None ExCW=0 ScaHFX=  1.000000
 ScaDFX=  1.000000  1.000000  1.000000  1.000000 ScalE2=  1.000000  1.000000
 IRadAn=      5 IRanWt=     -1 IRanGd=            0 ICorTp=0 IEmpDi=  4
 NAtoms=    3 NActive=    3 NUniq=    3 SFac= 1.00D+00 NAtFMM=   60 NAOKFM=F Big=F
 Integral buffers will be    131072 words long.
 Raffenetti 1 integral format.
 Two-electron integral symmetry is turned on.
 Leave Link  301 at Wed Feb  8 13:49:56 2023, MaxMem=   754974720 cpu:               0.1 elap:               0.0
 (Enter /opt/cluster/programs/g16-c.01/g16/l302.exe)
 NPDir=0 NMtPBC=     1 NCelOv=     1 NCel=       1 NClECP=     1 NCelD=      1
         NCelK=      1 NCelE2=     1 NClLst=     1 CellRange=     0.0.
 One-electron integrals computed using PRISM.
 One-electron integral symmetry used in STVInt
 NBasis=    92 RedAO= T EigKep=  3.49D-04  NBF=    62    30
 NBsUse=    92 1.00D-06 EigRej= -1.00D+00 NBFU=    62    30
 Leave Link  302 at Wed Feb  8 13:49:58 2023, MaxMem=   754974720 cpu:               3.5 elap:               1.8
 (Enter /opt/cluster/programs/g16-c.01/g16/l303.exe)
 DipDrv:  MaxL=1.
 Leave Link  303 at Wed Feb  8 13:49:58 2023, MaxMem=   754974720 cpu:               0.2 elap:               0.1
 (Enter /opt/cluster/programs/g16-c.01/g16/l401.exe)
 ExpMin= 2.53D-02 ExpMax= 1.53D+04 ExpMxC= 5.22D+02 IAcc=3 IRadAn=         5 AccDes= 0.00D+00
 Harris functional with IExCor=  205 and IRadAn=       5 diagonalized for initial guess.
 HarFok:  IExCor=  205 AccDes= 0.00D+00 IRadAn=         5 IDoV= 1 UseB2=F ITyADJ=14
 ICtDFT=  3500011 ScaDFX=  1.000000  1.000000  1.000000  1.000000
 FoFCou: FMM=F IPFlag=           0 FMFlag=      100000 FMFlg1=           0
         NFxFlg=           0 DoJE=T BraDBF=F KetDBF=T FulRan=T
         wScrn=  0.000000 ICntrl=       500 IOpCl=  0 I1Cent=   200000004 NGrid=           0
         NMat0=    1 NMatS0=      1 NMatT0=    0 NMatD0=    1 NMtDS0=    0 NMtDT0=    0
 Petite list used in FoFCou.
 Harris En= -76.1432328582750    
 JPrj=0 DoOrth=F DoCkMO=F.
 Initial guess orbital symmetries:
       Occupied  (A') (A') (A') (A') (A")
       Virtual   (A') (A') (A') (A") (A') (A') (A') (A') (A") (A")
                 (A') (A') (A') (A') (A') (A') (A') (A") (A") (A")
                 (A') (A') (A') (A") (A') (A") (A') (A') (A') (A")
                 (A') (A') (A") (A') (A') (A") (A") (A') (A') (A')
                 (A') (A") (A") (A') (A') (A") (A') (A') (A') (A")
                 (A') (A') (A") (A') (A') (A") (A') (A") (A") (A')
                 (A') (A") (A") (A') (A') (A') (A") (A') (A') (A')
                 (A") (A') (A') (A') (A") (A') (A") (A") (A') (A")
                 (A') (A") (A') (A') (A') (A') (A')
 The electronic state of the initial guess is 1-A'.
 Leave Link  401 at Wed Feb  8 13:49:59 2023, MaxMem=   754974720 cpu:               2.8 elap:               1.4
 (Enter /opt/cluster/programs/g16-c.01/g16/l502.exe)
 Keep R1 ints in memory in symmetry-blocked form, NReq=13818732.
 FoFCou: FMM=F IPFlag=           0 FMFlag=           0 FMFlg1=           0
         NFxFlg=           0 DoJE=F BraDBF=F KetDBF=F FulRan=T
         wScrn=  0.000000 ICntrl=       600 IOpCl=  0 I1Cent=           0 NGrid=           0
         NMat0=    1 NMatS0=   4278 NMatT0=    0 NMatD0=    1 NMtDS0=    0 NMtDT0=    0
 Petite list used in FoFCou.
 Closed shell SCF:
 Using DIIS extrapolation, IDIIS=  1040.
 NGot=   754974720 LenX=   750285684 LenY=   750274218
 Requested convergence on RMS density matrix=1.00D-08 within 200 cycles.
 Requested convergence on MAX density matrix=1.00D-06.
 Requested convergence on             energy=1.00D-06.
 No special actions if energy rises.

 Cycle   1  Pass 1  IDiag  1:
 E= -75.9582934334649    
 DIIS: error= 5.25D-02 at cycle   1 NSaved=   1.
 NSaved= 1 IEnMin= 1 EnMin= -75.9582934334649     IErMin= 1 ErrMin= 5.25D-02
 ErrMax= 5.25D-02  0.00D+00 EMaxC= 1.00D-01 BMatC= 2.05D-01 BMatP= 2.05D-01
 IDIUse=3 WtCom= 4.75D-01 WtEn= 5.25D-01
 Coeff-Com:  0.100D+01
 Coeff-En:   0.100D+01
 Coeff:      0.100D+01
 Gap=     0.455 Goal=   None    Shift=    0.000
 GapD=    0.455 DampG=2.000 DampE=0.500 DampFc=1.0000 IDamp=-1.
 RMSDP=2.20D-03 MaxDP=4.87D-02              OVMax= 1.28D-01

 Cycle   2  Pass 1  IDiag  1:
 E= -76.0104402055538     Delta-E=       -0.052146772089 Rises=F Damp=F
 DIIS: error= 3.49D-02 at cycle   2 NSaved=   2.
 NSaved= 2 IEnMin= 2 EnMin= -76.0104402055538     IErMin= 2 ErrMin= 3.49D-02
 ErrMax= 3.49D-02  0.00D+00 EMaxC= 1.00D-01 BMatC= 6.19D-02 BMatP= 2.05D-01
 IDIUse=3 WtCom= 6.51D-01 WtEn= 3.49D-01
 Coeff-Com:  0.328D+00 0.672D+00
 Coeff-En:   0.213D+00 0.787D+00
 Coeff:      0.288D+00 0.712D+00
 Gap=     0.568 Goal=   None    Shift=    0.000
 RMSDP=1.34D-03 MaxDP=3.63D-02 DE=-5.21D-02 OVMax= 6.58D-02

 Cycle   3  Pass 1  IDiag  1:
 E= -76.0473430935382     Delta-E=       -0.036902887984 Rises=F Damp=F
 DIIS: error= 6.75D-03 at cycle   3 NSaved=   3.
 NSaved= 3 IEnMin= 3 EnMin= -76.0473430935382     IErMin= 3 ErrMin= 6.75D-03
 ErrMax= 6.75D-03  0.00D+00 EMaxC= 1.00D-01 BMatC= 2.66D-03 BMatP= 6.19D-02
 IDIUse=3 WtCom= 9.32D-01 WtEn= 6.75D-02
 Coeff-Com: -0.312D-01 0.139D+00 0.892D+00
 Coeff-En:   0.000D+00 0.000D+00 0.100D+01
 Coeff:     -0.291D-01 0.130D+00 0.899D+00
 Gap=     0.540 Goal=   None    Shift=    0.000
 RMSDP=2.13D-04 MaxDP=4.05D-03 DE=-3.69D-02 OVMax= 1.23D-02

 Cycle   4  Pass 1  IDiag  1:
 E= -76.0490304808671     Delta-E=       -0.001687387329 Rises=F Damp=F
 DIIS: error= 5.74D-04 at cycle   4 NSaved=   4.
 NSaved= 4 IEnMin= 4 EnMin= -76.0490304808671     IErMin= 4 ErrMin= 5.74D-04
 ErrMax= 5.74D-04  0.00D+00 EMaxC= 1.00D-01 BMatC= 1.31D-05 BMatP= 2.66D-03
 IDIUse=3 WtCom= 9.94D-01 WtEn= 5.74D-03
 Coeff-Com:  0.775D-02-0.547D-01-0.274D+00 0.132D+01
 Coeff-En:   0.000D+00 0.000D+00 0.000D+00 0.100D+01
 Coeff:      0.771D-02-0.544D-01-0.272D+00 0.132D+01
 Gap=     0.542 Goal=   None    Shift=    0.000
 RMSDP=4.05D-05 MaxDP=7.02D-04 DE=-1.69D-03 OVMax= 2.35D-03

 Cycle   5  Pass 1  IDiag  1:
 E= -76.0490561541634     Delta-E=       -0.000025673296 Rises=F Damp=F
 DIIS: error= 1.69D-04 at cycle   5 NSaved=   5.
 NSaved= 5 IEnMin= 5 EnMin= -76.0490561541634     IErMin= 5 ErrMin= 1.69D-04
 ErrMax= 1.69D-04  0.00D+00 EMaxC= 1.00D-01 BMatC= 7.14D-07 BMatP= 1.31D-05
 IDIUse=3 WtCom= 9.98D-01 WtEn= 1.69D-03
 Coeff-Com: -0.213D-04 0.351D-02 0.179D-01-0.300D+00 0.128D+01
 Coeff-En:   0.000D+00 0.000D+00 0.000D+00 0.000D+00 0.100D+01
 Coeff:     -0.212D-04 0.351D-02 0.178D-01-0.300D+00 0.128D+01
 Gap=     0.543 Goal=   None    Shift=    0.000
 RMSDP=1.13D-05 MaxDP=2.44D-04 DE=-2.57D-05 OVMax= 7.55D-04

 Cycle   6  Pass 1  IDiag  1:
 E= -76.0490578932626     Delta-E=       -0.000001739099 Rises=F Damp=F
 DIIS: error= 2.53D-05 at cycle   6 NSaved=   6.
 NSaved= 6 IEnMin= 6 EnMin= -76.0490578932626     IErMin= 6 ErrMin= 2.53D-05
 ErrMax= 2.53D-05  0.00D+00 EMaxC= 1.00D-01 BMatC= 2.20D-08 BMatP= 7.14D-07
 IDIUse=1 WtCom= 1.00D+00 WtEn= 0.00D+00
 Coeff-Com: -0.255D-03 0.110D-02 0.431D-02 0.259D-01-0.335D+00 0.130D+01
 Coeff:     -0.255D-03 0.110D-02 0.431D-02 0.259D-01-0.335D+00 0.130D+01
 Gap=     0.543 Goal=   None    Shift=    0.000
 RMSDP=2.27D-06 MaxDP=5.31D-05 DE=-1.74D-06 OVMax= 1.47D-04

 Cycle   7  Pass 1  IDiag  1:
 E= -76.0490579550414     Delta-E=       -0.000000061779 Rises=F Damp=F
 DIIS: error= 3.74D-06 at cycle   7 NSaved=   7.
 NSaved= 7 IEnMin= 7 EnMin= -76.0490579550414     IErMin= 7 ErrMin= 3.74D-06
 ErrMax= 3.74D-06  0.00D+00 EMaxC= 1.00D-01 BMatC= 8.36D-10 BMatP= 2.20D-08
 IDIUse=1 WtCom= 1.00D+00 WtEn= 0.00D+00
 Coeff-Com:  0.257D-04-0.292D-03-0.152D-02 0.151D-01-0.387D-01-0.909D-01
 Coeff-Com:  0.112D+01
 Coeff:      0.257D-04-0.292D-03-0.152D-02 0.151D-01-0.387D-01-0.909D-01
 Coeff:      0.112D+01
 Gap=     0.543 Goal=   None    Shift=    0.000
 RMSDP=3.38D-07 MaxDP=6.08D-06 DE=-6.18D-08 OVMax= 2.26D-05

 Cycle   8  Pass 1  IDiag  1:
 E= -76.0490579566781     Delta-E=       -0.000000001637 Rises=F Damp=F
 DIIS: error= 7.89D-07 at cycle   8 NSaved=   8.
 NSaved= 8 IEnMin= 8 EnMin= -76.0490579566781     IErMin= 8 ErrMin= 7.89D-07
 ErrMax= 7.89D-07  0.00D+00 EMaxC= 1.00D-01 BMatC= 3.74D-11 BMatP= 8.36D-10
 IDIUse=1 WtCom= 1.00D+00 WtEn= 0.00D+00
 Coeff-Com:  0.596D-05 0.106D-04 0.160D-03-0.440D-02 0.224D-01-0.344D-01
 Coeff-Com: -0.273D+00 0.129D+01
 Coeff:      0.596D-05 0.106D-04 0.160D-03-0.440D-02 0.224D-01-0.344D-01
 Coeff:     -0.273D+00 0.129D+01
 Gap=     0.543 Goal=   None    Shift=    0.000
 RMSDP=1.02D-07 MaxDP=2.44D-06 DE=-1.64D-09 OVMax= 5.79D-06

 Cycle   9  Pass 1  IDiag  1:
 E= -76.0490579567712     Delta-E=       -0.000000000093 Rises=F Damp=F
 DIIS: error= 1.47D-07 at cycle   9 NSaved=   9.
 NSaved= 9 IEnMin= 9 EnMin= -76.0490579567712     IErMin= 9 ErrMin= 1.47D-07
 ErrMax= 1.47D-07  0.00D+00 EMaxC= 1.00D-01 BMatC= 8.48D-13 BMatP= 3.74D-11
 IDIUse=1 WtCom= 1.00D+00 WtEn= 0.00D+00
 Coeff-Com: -0.194D-05 0.332D-05-0.151D-04 0.820D-03-0.470D-02 0.987D-02
 Coeff-Com:  0.503D-01-0.346D+00 0.129D+01
 Coeff:     -0.194D-05 0.332D-05-0.151D-04 0.820D-03-0.470D-02 0.987D-02
 Coeff:      0.503D-01-0.346D+00 0.129D+01
 Gap=     0.543 Goal=   None    Shift=    0.000
 RMSDP=1.66D-08 MaxDP=3.45D-07 DE=-9.32D-11 OVMax= 7.72D-07

 Cycle  10  Pass 1  IDiag  1:
 E= -76.0490579567733     Delta-E=       -0.000000000002 Rises=F Damp=F
 DIIS: error= 3.35D-08 at cycle  10 NSaved=  10.
 NSaved=10 IEnMin=10 EnMin= -76.0490579567733     IErMin=10 ErrMin= 3.35D-08
 ErrMax= 3.35D-08  0.00D+00 EMaxC= 1.00D-01 BMatC= 3.72D-14 BMatP= 8.48D-13
 IDIUse=1 WtCom= 1.00D+00 WtEn= 0.00D+00
 Coeff-Com:  0.401D-06-0.137D-05-0.552D-06-0.109D-03 0.703D-03-0.180D-02
 Coeff-Com: -0.663D-02 0.615D-01-0.401D+00 0.135D+01
 Coeff:      0.401D-06-0.137D-05-0.552D-06-0.109D-03 0.703D-03-0.180D-02
 Coeff:     -0.663D-02 0.615D-01-0.401D+00 0.135D+01
 Gap=     0.543 Goal=   None    Shift=    0.000
 RMSDP=3.83D-09 MaxDP=8.10D-08 DE=-2.03D-12 OVMax= 2.03D-07

 SCF Done:  E(RHF) =  -76.0490579568     A.U. after   10 cycles
            NFock= 10  Conv=0.38D-08     -V/T= 2.0007
 KE= 7.599375824468D+01 PE=-1.990680108426D+02 EE= 3.778417265669D+01
 Leave Link  502 at Wed Feb  8 13:50:00 2023, MaxMem=   754974720 cpu:               2.4 elap:               0.7
 (Enter /opt/cluster/programs/g16-c.01/g16/l801.exe)
 Windowed orbitals will be sorted by symmetry type.
 ExpMin= 2.53D-02 ExpMax= 1.53D+04 ExpMxC= 5.22D+02 IAcc=3 IRadAn=         5 AccDes= 0.00D+00
 HarFok:  IExCor=  205 AccDes= 0.00D+00 IRadAn=         5 IDoV=-2 UseB2=F ITyADJ=14
 ICtDFT= 12500011 ScaDFX=  1.000000  1.000000  1.000000  1.000000
 Largest valence mixing into a core orbital is  1.12D-04
 Largest core mixing into a valence orbital is  1.66D-05
 Range of M.O.s used for correlation:     2    92
 NBasis=    92 NAE=     5 NBE=     5 NFC=     1 NFV=     0
 NROrb=     91 NOA=     4 NOB=     4 NVA=    87 NVB=    87

 **** Warning!!: The largest alpha MO coefficient is  0.15541676D+02

 Leave Link  801 at Wed Feb  8 13:50:00 2023, MaxMem=   754974720 cpu:               0.6 elap:               0.3
 (Enter /opt/cluster/programs/g16-c.01/g16/l804.exe)
 Closed-shell transformation, MDV=   754974720 ITran=4 ISComp=2.
 Unit  1 TFree=        277501 TCopy=        343607.
 Semi-Direct transformation.
 ModeAB=           2 MOrb=             4 LenV=     754586778
 LASXX=       736380 LTotXX=      736380 LenRXX=      736380
 LTotAB=      763744 MaxLAS=     2025660 LenRXY=     2025660
 NonZer=     2107560 LenScr=     3929600 LnRSAI=           0
 LnScr1=           0 LExtra=           0 Total=      6691640
 MaxDsk=          -1 SrtSym=           F ITran=            4
 DoSDTr:  NPSUse=  4
 JobTyp=0 Pass  1:  I=   1 to   4.
 (rs|ai) integrals will be sorted in core.
 Complete sort for first half transformation.
 First half transformation complete.
 Complete sort for second half transformation.
 Second half transformation complete.
 Spin components of T(2) and E(2):
     alpha-alpha T2 =       0.8251068001D-02 E2=     -0.3281839110D-01
     alpha-beta  T2 =       0.4785113355D-01 E2=     -0.2043787782D+00
     beta-beta   T2 =       0.8251068001D-02 E2=     -0.3281839110D-01
 ANorm=    0.1031674983D+01
 E2 =    -0.2700155604D+00 EUMP2 =    -0.76319073517220D+02
 Leave Link  804 at Wed Feb  8 13:50:01 2023, MaxMem=   754974720 cpu:               2.3 elap:               0.6
 (Enter /opt/cluster/programs/g16-c.01/g16/l913.exe)
 CIDS:  MDV=   754974720.
 Frozen-core window:  NFC=   1 NFV=   0.
 IFCWin=0 IBDFC=1 NFBD=     0     0 NFCmp=     0     0 NFFFC=     0     0
 Using DD3R+UMP44R for 1st iteration.
 Using DD4RQ for 2nd and later iterations.
 Keep R2 and R3 ints in memory in symmetry-blocked form, NReq=13979827.
 FoFCou: FMM=F IPFlag=           0 FMFlag=           0 FMFlg1=           0
         NFxFlg=           0 DoJE=F BraDBF=F KetDBF=F FulRan=T
         wScrn=  0.000000 ICntrl=       600 IOpCl=  0 I1Cent=           0 NGrid=           0
         NMat0=    1 NMatS0=   4278 NMatT0=    0 NMatD0=    1 NMtDS0=    0 NMtDT0=    0
 Petite list used in FoFCou.
 CIDS: In Core Option IDoMem=           1.
 CCSD(T)
 =======
 Iterations=  50 Convergence= 0.100D-06
 Produce multiple copies of IABC intergrals
 Iteration Nr.   1
 **********************
 DD1Dir will call FoFMem   1 times, MxPair=        20
 NAB=    10 NAA=     0 NBB=     0.
 MP4(R+Q)=  0.41548641D-02
 Maximum subspace dimension=  5
 A-vector RMS=  2.9088120D-03 Max=  1.2215123D-02 conv= 1.00D-05.
 RLE energy=       -0.2681813468
 E3=       -0.23517562D-02        EUMP3=      -0.76321425273D+02
 E4(DQ)=   -0.63442978D-03        UMP4(DQ)=   -0.76322059703D+02
 E4(SDQ)=  -0.26045831D-02        UMP4(SDQ)=  -0.76324029857D+02
 VARIATIONAL ENERGIES WITH THE FIRST-ORDER WAVEFUNCTION:
 DE(Corr)= -0.26816881     E(Corr)=     -76.317226766    
 NORM(A)=   0.10313925D+01
 Iteration Nr.   2
 **********************
 DD1Dir will call FoFMem   1 times, MxPair=        20
 NAB=    10 NAA=     0 NBB=     0.
 A-vector RMS=  3.1234826D-04 Max=  2.1933509D-03 conv= 1.00D-05.
 RLE energy=       -0.2741105393
 DE(Corr)= -0.27372734     E(CORR)=     -76.322785301     Delta=-5.56D-03
 NORM(A)=   0.10335772D+01
 Iteration Nr.   3
 **********************
 DD1Dir will call FoFMem   1 times, MxPair=        20
 NAB=    10 NAA=     0 NBB=     0.
 A-vector RMS=  4.0403590D-04 Max=  2.2279037D-03 conv= 1.00D-05.
 RLE energy=       -0.2744328825
 DE(Corr)= -0.27404216     E(CORR)=     -76.323100114     Delta=-3.15D-04
 NORM(A)=   0.10340169D+01
 Iteration Nr.   4
 **********************
 DD1Dir will call FoFMem   1 times, MxPair=        20
 NAB=    10 NAA=     0 NBB=     0.
 A-vector RMS=  6.3677605D-05 Max=  3.6797780D-04 conv= 1.00D-05.
 RLE energy=       -0.2744683231
 DE(Corr)= -0.27443908     E(CORR)=     -76.323497039     Delta=-3.97D-04
 NORM(A)=   0.10341345D+01
 Iteration Nr.   5
 **********************
 DD1Dir will call FoFMem   1 times, MxPair=        20
 NAB=    10 NAA=     0 NBB=     0.
 A-vector RMS=  2.9786354D-05 Max=  1.8966041D-04 conv= 1.00D-05.
 RLE energy=       -0.2744809383
 DE(Corr)= -0.27447542     E(CORR)=     -76.323533375     Delta=-3.63D-05
 NORM(A)=   0.10341575D+01
 Iteration Nr.   6
 **********************
 DD1Dir will call FoFMem   1 times, MxPair=        20
 NAB=    10 NAA=     0 NBB=     0.
 A-vector RMS=  6.9780812D-06 Max=  4.2057584D-05 conv= 1.00D-05.
 RLE energy=       -0.2744773302
 DE(Corr)= -0.27447820     E(CORR)=     -76.323536160     Delta=-2.78D-06
 NORM(A)=   0.10341593D+01
 Iteration Nr.   7
 **********************
 DD1Dir will call FoFMem   1 times, MxPair=        20
 NAB=    10 NAA=     0 NBB=     0.
 A-vector RMS=  2.2623550D-06 Max=  1.1482302D-05 conv= 1.00D-05.
 RLE energy=       -0.2744773344
 DE(Corr)= -0.27447821     E(CORR)=     -76.323536163     Delta=-2.97D-09
 NORM(A)=   0.10341598D+01
 Iteration Nr.   8
 **********************
 DD1Dir will call FoFMem   1 times, MxPair=        20
 NAB=    10 NAA=     0 NBB=     0.
 A-vector RMS=  9.0581917D-07 Max=  5.7264803D-06 conv= 1.00D-05.
 RLE energy=       -0.2744778569
 DE(Corr)= -0.27447796     E(CORR)=     -76.323535917     Delta= 2.46D-07
 NORM(A)=   0.10341602D+01
 Iteration Nr.   9
 **********************
 DD1Dir will call FoFMem   1 times, MxPair=        20
 NAB=    10 NAA=     0 NBB=     0.
 A-vector RMS=  1.9207013D-07 Max=  1.0263299D-06 conv= 1.00D-05.
 RLE energy=       -0.2744779463
 DE(Corr)= -0.27447796     E(CORR)=     -76.323535920     Delta=-2.91D-09
 NORM(A)=   0.10341603D+01
 CI/CC converged in    9 iterations to DelEn=-2.91D-09 Conv= 1.00D-07 ErrA1= 1.92D-07 Conv= 1.00D-05
 Wavefunction amplitudes converged. E(Corr)=     -76.323535920    
 Largest amplitude= 2.07D-02
 IPart=  1 IA=    6   11.23% done.
 IPart=  2 IA=   11   21.79% done.
 IPart=  2 IA=   16   31.68% done.
 IPart=  3 IA=   21   40.90% done.
 IPart=  4 IA=   27   51.08% done.
 IPart=  3 IA=   33   60.30% done.
 IPart=  1 IA=   41   71.10% done.
 IPart=  3 IA=   49   80.19% done.
 IPart=  4 IA=   61   90.62% done.
 Time for triples=        6.27 seconds.
 T4(CCSD)= -0.91234514D-02
 T5(CCSD)=  0.33344164D-03
 CCSD(T)= -0.76332325929D+02
 Discarding MO integrals.
 Leave Link  913 at Wed Feb  8 13:50:41 2023, MaxMem=   754974720 cpu:              82.8 elap:              39.8
 (Enter /opt/cluster/programs/g16-c.01/g16/l601.exe)
 Copying SCF densities to generalized density rwf, IOpCl= 0 IROHF=0.

 **********************************************************************

            Population analysis using the SCF Density.

 **********************************************************************

 Orbital symmetries:
       Occupied  (A') (A') (A') (A') (A")
       Virtual   (A') (A') (A') (A") (A') (A') (A') (A') (A") (A")
                 (A') (A') (A') (A') (A') (A') (A') (A") (A") (A')
                 (A") (A') (A") (A') (A") (A') (A') (A') (A') (A")
                 (A') (A") (A') (A') (A') (A") (A") (A') (A') (A')
                 (A') (A") (A") (A') (A') (A") (A') (A') (A') (A")
                 (A') (A') (A") (A') (A') (A') (A") (A") (A") (A')
                 (A') (A") (A") (A') (A') (A') (A") (A') (A') (A')
                 (A") (A') (A') (A') (A") (A') (A") (A') (A") (A")
                 (A") (A') (A') (A') (A') (A') (A')
 The electronic state is 1-A'.
 Alpha  occ. eigenvalues --  -20.57254  -1.36613  -0.68890  -0.61102  -0.51436
 Alpha virt. eigenvalues --    0.02824   0.04861   0.13313   0.16059   0.17634
 Alpha virt. eigenvalues --    0.18688   0.22279   0.24696   0.27043   0.28735
 Alpha virt. eigenvalues --    0.30337   0.36925   0.42959   0.46958   0.59133
 Alpha virt. eigenvalues --    0.67024   0.70008   0.72541   0.73515   0.84490
 Alpha virt. eigenvalues --    0.86522   0.89550   0.90120   0.90907   0.92500
 Alpha virt. eigenvalues --    0.94185   0.94935   1.00822   1.05825   1.07629
 Alpha virt. eigenvalues --    1.10864   1.18531   1.19936   1.27078   1.44936
 Alpha virt. eigenvalues --    1.50596   1.56563   1.81543   1.90883   1.94366
 Alpha virt. eigenvalues --    2.17637   2.26786   2.32138   2.33187   2.40083
 Alpha virt. eigenvalues --    2.41660   2.43153   2.53587   2.68082   2.70170
 Alpha virt. eigenvalues --    2.72530   2.85427   2.86969   3.52046   3.70715
 Alpha virt. eigenvalues --    4.02861   4.04560   4.09034   4.14798   4.33322
 Alpha virt. eigenvalues --    4.38323   4.38886   4.41794   4.59407   4.72540
 Alpha virt. eigenvalues --    4.88172   5.09022   5.09665   5.23866   5.48670
 Alpha virt. eigenvalues --    5.60108   5.61752   6.29573   6.46920   6.69825
 Alpha virt. eigenvalues --    7.02387   7.08765   7.16079   7.24714   7.31174
 Alpha virt. eigenvalues --    7.43050   7.45171   7.55286   7.70789   8.06979
 Alpha virt. eigenvalues --    8.85092  16.01985
          Condensed to atoms (all electrons):
               1          2          3
     1  O    7.920407   0.254633   0.262177
     2  H    0.254633   0.536138   0.033072
     3  H    0.262177   0.033072   0.443688
 Mulliken charges:
               1
     1  O   -0.437218
     2  H    0.176156
     3  H    0.261062
 Sum of Mulliken charges =   0.00000
 Mulliken charges with hydrogens summed into heavy atoms:
               1
     1  O    0.000000
 Electronic spatial extent (au):  <R**2>=             19.4700
 Charge=              0.0000 electrons
 Dipole moment (field-independent basis, Debye):
    X=              0.0594    Y=             -2.2011    Z=              0.0000  Tot=              2.2019
 Quadrupole moment (field-independent basis, Debye-Ang):
   XX=             -4.8780   YY=             -5.7883   ZZ=             -7.5416
   XY=              0.1881   XZ=              0.0000   YZ=              0.0000
 Traceless Quadrupole moment (field-independent basis, Debye-Ang):
   XX=              1.1913   YY=              0.2810   ZZ=             -1.4723
   XY=              0.1881   XZ=              0.0000   YZ=              0.0000
 Octapole moment (field-independent basis, Debye-Ang**2):
  XXX=              0.1659  YYY=             -1.4593  ZZZ=              0.0000  XYY=             -0.1656
  XXY=             -1.2974  XXZ=              0.0000  XZZ=              0.0534  YZZ=             -0.2739
  YYZ=              0.0000  XYZ=              0.0000
 Hexadecapole moment (field-independent basis, Debye-Ang**3):
 XXXX=             -6.3537 YYYY=             -7.2692 ZZZZ=             -6.6679 XXXY=             -0.0863
 XXXZ=              0.0000 YYYX=              0.0247 YYYZ=              0.0000 ZZZX=              0.0000
 ZZZY=              0.0000 XXYY=             -1.7873 XXZZ=             -2.3724 YYZZ=             -2.4197
 XXYZ=              0.0000 YYXZ=              0.0000 ZZXY=             -0.0674
 N-N= 9.241021984503D+00 E-N=-1.990680107487D+02  KE= 7.599375824468D+01
 Symmetry A'   KE= 7.151270947148D+01
 Symmetry A"   KE= 4.481048773197D+00
 Leave Link  601 at Wed Feb  8 13:50:41 2023, MaxMem=   754974720 cpu:               0.7 elap:               0.3
 (Enter /opt/cluster/programs/g16-c.01/g16/l9999.exe)
 Unable to Open any file for archive entry.
 1\1\GINC-NODE62\SP\RCCSD(T)-FC\Aug-CC-pVTZ\H2O1\BOITTIER\08-Feb-2023\0
 \\#P CCSD(T)/aug-cc-pVTZ scf(maxcycle=200)\\Gaussian input\\0,1\O,0,0.
 ,0.11751,0.\H,0,0.7183372325,-0.4395112028,0.\H,0,-0.624542997,-0.6749
 715738,0.\\Version=ES64L-G16RevC.01\State=1-A'\HF=-76.049058\MP2=-76.3
 190735\MP3=-76.3214253\MP4D=-76.3262146\MP4DQ=-76.3220597\MP4SDQ=-76.3
 240299\CCSD=-76.3235359\CCSD(T)=-76.3323259\RMSD=3.827e-09\PG=CS [SG(H
 2O1)]\\@
 The archive entry for this job was punched.


 EVERYTHING'S GOT A MORAL, IF ONLY YOU CAN FIND IT.

                                    -- LEWIS CARROL, ALICE IN WONDERLAND
 Job cpu time:       0 days  0 hours  1 minutes 36.2 seconds.
 Elapsed time:       0 days  0 hours  0 minutes 45.3 seconds.
 File lengths (MBytes):  RWF=     75 Int=      0 D2E=      0 Chk=      2 Scr=      1
 Normal termination of Gaussian 16 at Wed Feb  8 13:50:41 2023.
