 Entering Gaussian System, Link 0=/opt/cluster/programs/g16-c.01/g16/g16
 Input=/scratch/boittier/jobs/tmp.7425316/gaussian_50_water_pbe0_dz.com
 Output=/scratch/boittier/jobs/tmp.7425316/gaussian_50_water_pbe0_dz.out
 Initial command:
 /opt/cluster/programs/g16-c.01/g16/l1.exe "/scratch/boittier/jobs/tmp.7425316/Gau-13009.inp" -scrdir="/scratch/boittier/jobs/tmp.7425316/"
 Entering Link 1 = /opt/cluster/programs/g16-c.01/g16/l1.exe PID=     13019.
  
 Copyright (c) 1988-2019, Gaussian, Inc.  All Rights Reserved.
  
 This is part of the Gaussian(R) 16 program.  It is based on
 the Gaussian(R) 09 system (copyright 2009, Gaussian, Inc.),
 the Gaussian(R) 03 system (copyright 2003, Gaussian, Inc.),
 the Gaussian(R) 98 system (copyright 1998, Gaussian, Inc.),
 the Gaussian(R) 94 system (copyright 1995, Gaussian, Inc.),
 the Gaussian 92(TM) system (copyright 1992, Gaussian, Inc.),
 the Gaussian 90(TM) system (copyright 1990, Gaussian, Inc.),
 the Gaussian 88(TM) system (copyright 1988, Gaussian, Inc.),
 the Gaussian 86(TM) system (copyright 1986, Carnegie Mellon
 University), and the Gaussian 82(TM) system (copyright 1983,
 Carnegie Mellon University). Gaussian is a federally registered
 trademark of Gaussian, Inc.
  
 This software contains proprietary and confidential information,
 including trade secrets, belonging to Gaussian, Inc.
  
 This software is provided under written license and may be
 used, copied, transmitted, or stored only in accord with that
 written license.
  
 The following legend is applicable only to US Government
 contracts under FAR:
  
                    RESTRICTED RIGHTS LEGEND
  
 Use, reproduction and disclosure by the US Government is
 subject to restrictions as set forth in subparagraphs (a)
 and (c) of the Commercial Computer Software - Restricted
 Rights clause in FAR 52.227-19.
  
 Gaussian, Inc.
 340 Quinnipiac St., Bldg. 40, Wallingford CT 06492
  
  
 ---------------------------------------------------------------
 Warning -- This program may not be used in any manner that
 competes with the business of Gaussian, Inc. or will provide
 assistance to any competitor of Gaussian, Inc.  The licensee
 of this program is prohibited from giving any competitor of
 Gaussian, Inc. access to this program.  By using this program,
 the user acknowledges that Gaussian, Inc. is engaged in the
 business of creating and licensing software in the field of
 computational chemistry and represents and warrants to the
 licensee that it is not a competitor of Gaussian, Inc. and that
 it will not use this program in any manner prohibited above.
 ---------------------------------------------------------------
  

 Cite this work as:
 Gaussian 16, Revision C.01,
 M. J. Frisch, G. W. Trucks, H. B. Schlegel, G. E. Scuseria, 
 M. A. Robb, J. R. Cheeseman, G. Scalmani, V. Barone, 
 G. A. Petersson, H. Nakatsuji, X. Li, M. Caricato, A. V. Marenich, 
 J. Bloino, B. G. Janesko, R. Gomperts, B. Mennucci, H. P. Hratchian, 
 J. V. Ortiz, A. F. Izmaylov, J. L. Sonnenberg, D. Williams-Young, 
 F. Ding, F. Lipparini, F. Egidi, J. Goings, B. Peng, A. Petrone, 
 T. Henderson, D. Ranasinghe, V. G. Zakrzewski, J. Gao, N. Rega, 
 G. Zheng, W. Liang, M. Hada, M. Ehara, K. Toyota, R. Fukuda, 
 J. Hasegawa, M. Ishida, T. Nakajima, Y. Honda, O. Kitao, H. Nakai, 
 T. Vreven, K. Throssell, J. A. Montgomery, Jr., J. E. Peralta, 
 F. Ogliaro, M. J. Bearpark, J. J. Heyd, E. N. Brothers, K. N. Kudin, 
 V. N. Staroverov, T. A. Keith, R. Kobayashi, J. Normand, 
 K. Raghavachari, A. P. Rendell, J. C. Burant, S. S. Iyengar, 
 J. Tomasi, M. Cossi, J. M. Millam, M. Klene, C. Adamo, R. Cammi, 
 J. W. Ochterski, R. L. Martin, K. Morokuma, O. Farkas, 
 J. B. Foresman, and D. J. Fox, Gaussian, Inc., Wallingford CT, 2019.
 
 ******************************************
 Gaussian 16:  ES64L-G16RevC.01  3-Jul-2019
                20-Mar-2023 
 ******************************************
 %nproc=4
 Will use up to    4 processors via shared memory.
 %mem=5760MB
 %chk=gaussian_50_water_pbe0_dz.chk
 ----------------------------------------
 #P PBE1PBE/aug-cc-pVDZ scf(maxcycle=200)
 ----------------------------------------
 1/38=1,172=1/1;
 2/12=2,17=6,18=5,40=1/2;
 3/5=16,7=10,11=2,25=1,30=1,74=-13/1,2,3;
 4//1;
 5/5=2,7=200,38=5/2;
 6/7=2,8=2,9=2,10=2,28=1/1;
 99/5=1,9=1/99;
 Leave Link    1 at Mon Mar 20 17:33:46 2023, MaxMem=   754974720 cpu:               0.1 elap:               0.1
 (Enter /opt/cluster/programs/g16-c.01/g16/l101.exe)
 --------------
 Gaussian input
 --------------
 Symbolic Z-matrix:
 Charge =  0 Multiplicity = 1
 O                     0.        0.11751   0. 
 H                     0.71834  -0.43951   0. 
 H                    -0.79771  -0.50034   0. 
 
 ITRead=  0  0  0
 MicOpt= -1 -1 -1
 NAtoms=      3 NQM=        3 NQMF=       0 NMMI=      0 NMMIF=      0
                NMic=       0 NMicF=      0.
                    Isotopes and Nuclear Properties:
 (Nuclear quadrupole moments (NQMom) in fm**2, nuclear magnetic moments (NMagM)
  in nuclear magnetons)

  Atom         1           2           3
 IAtWgt=          16           1           1
 AtmWgt=  15.9949146   1.0078250   1.0078250
 NucSpn=           0           1           1
 AtZEff=  -0.0000000  -0.0000000  -0.0000000
 NQMom=    0.0000000   0.0000000   0.0000000
 NMagM=    0.0000000   2.7928460   2.7928460
 AtZNuc=   8.0000000   1.0000000   1.0000000
 Leave Link  101 at Mon Mar 20 17:33:46 2023, MaxMem=   754974720 cpu:               0.4 elap:               0.2
 (Enter /opt/cluster/programs/g16-c.01/g16/l202.exe)
                          Input orientation:                          
 ---------------------------------------------------------------------
 Center     Atomic      Atomic             Coordinates (Angstroms)
 Number     Number       Type             X           Y           Z
 ---------------------------------------------------------------------
      1          8           0        0.000000    0.117510    0.000000
      2          1           0        0.718337   -0.439511    0.000000
      3          1           0       -0.797710   -0.500341    0.000000
 ---------------------------------------------------------------------
                    Distance matrix (angstroms):
                    1          2          3
     1  O    0.000000
     2  H    0.909000   0.000000
     3  H    1.009000   1.517267   0.000000
 Stoichiometry    H2O
 Framework group  CS[SG(H2O)]
 Deg. of freedom     3
 Full point group                 CS      NOp   2
 Largest Abelian subgroup         CS      NOp   2
 Largest concise Abelian subgroup C1      NOp   1
                         Standard orientation:                         
 ---------------------------------------------------------------------
 Center     Atomic      Atomic             Coordinates (Angstroms)
 Number     Number       Type             X           Y           Z
 ---------------------------------------------------------------------
      1          8           0        0.000000    0.117755    0.000000
      2          1           0        0.754250   -0.389580    0.000000
      3          1           0       -0.754250   -0.552460    0.000000
 ---------------------------------------------------------------------
 Rotational constants (GHZ):         834.5416283         430.1030815         283.8259024
 Leave Link  202 at Mon Mar 20 17:33:46 2023, MaxMem=   754974720 cpu:               0.1 elap:               0.0
 (Enter /opt/cluster/programs/g16-c.01/g16/l301.exe)
 Standard basis: Aug-CC-pVDZ (5D, 7F)
 Ernie: Thresh=  0.10000D-02 Tol=  0.10000D-05 Strict=F.
 Ernie:  2 primitive shells out of 39 were deleted.
 There are    32 symmetry adapted cartesian basis functions of A'  symmetry.
 There are    11 symmetry adapted cartesian basis functions of A"  symmetry.
 There are    30 symmetry adapted basis functions of A'  symmetry.
 There are    11 symmetry adapted basis functions of A"  symmetry.
    41 basis functions,    65 primitive gaussians,    43 cartesian basis functions
     5 alpha electrons        5 beta electrons
       nuclear repulsion energy         9.2016519207 Hartrees.
 IExCor= 1009 DFT=T Ex+Corr=PBE1PBE ExCW=0 ScaHFX=  0.250000
 ScaDFX=  0.750000  0.750000  1.000000  1.000000 ScalE2=  1.000000  1.000000
 IRadAn=      5 IRanWt=     -1 IRanGd=            0 ICorTp=0 IEmpDi=  4
 NAtoms=    3 NActive=    3 NUniq=    3 SFac= 1.00D+00 NAtFMM=   60 NAOKFM=F Big=F
 Integral buffers will be    131072 words long.
 Raffenetti 2 integral format.
 Two-electron integral symmetry is turned on.
 Leave Link  301 at Mon Mar 20 17:33:46 2023, MaxMem=   754974720 cpu:               0.2 elap:               0.1
 (Enter /opt/cluster/programs/g16-c.01/g16/l302.exe)
 NPDir=0 NMtPBC=     1 NCelOv=     1 NCel=       1 NClECP=     1 NCelD=      1
         NCelK=      1 NCelE2=     1 NClLst=     1 CellRange=     0.0.
 One-electron integrals computed using PRISM.
 One-electron integral symmetry used in STVInt
 NBasis=    41 RedAO= T EigKep=  2.54D-03  NBF=    30    11
 NBsUse=    41 1.00D-06 EigRej= -1.00D+00 NBFU=    30    11
 Precomputing XC quadrature grid using
 IXCGrd= 4 IRadAn=           5 IRanWt=          -1 IRanGd=           0 AccXCQ= 0.00D+00.
 Generated NRdTot=       0 NPtTot=           0 NUsed=           0 NTot=          32
 NSgBfM=    43    43    43    43    43 MxSgAt=     3 MxSgA2=     3.
 Leave Link  302 at Mon Mar 20 17:33:47 2023, MaxMem=   754974720 cpu:               1.4 elap:               0.7
 (Enter /opt/cluster/programs/g16-c.01/g16/l303.exe)
 DipDrv:  MaxL=1.
 Leave Link  303 at Mon Mar 20 17:33:47 2023, MaxMem=   754974720 cpu:               0.5 elap:               0.3
 (Enter /opt/cluster/programs/g16-c.01/g16/l401.exe)
 ExpMin= 2.97D-02 ExpMax= 1.17D+04 ExpMxC= 4.01D+02 IAcc=3 IRadAn=         5 AccDes= 0.00D+00
 Harris functional with IExCor= 1009 and IRadAn=       5 diagonalized for initial guess.
 HarFok:  IExCor= 1009 AccDes= 0.00D+00 IRadAn=         5 IDoV= 1 UseB2=F ITyADJ=14
 ICtDFT=  3500011 ScaDFX=  1.000000  1.000000  1.000000  1.000000
 FoFCou: FMM=F IPFlag=           0 FMFlag=      100000 FMFlg1=           0
         NFxFlg=           0 DoJE=T BraDBF=F KetDBF=T FulRan=T
         wScrn=  0.000000 ICntrl=       500 IOpCl=  0 I1Cent=   200000004 NGrid=           0
         NMat0=    1 NMatS0=      1 NMatT0=    0 NMatD0=    1 NMtDS0=    0 NMtDT0=    0
 Petite list used in FoFCou.
 Harris En= -76.3946346606522    
 JPrj=0 DoOrth=F DoCkMO=F.
 Initial guess orbital symmetries:
       Occupied  (A') (A') (A') (A') (A")
       Virtual   (A') (A') (A') (A") (A') (A') (A') (A') (A") (A')
                 (A") (A') (A') (A') (A') (A') (A") (A') (A") (A')
                 (A") (A') (A') (A') (A") (A") (A') (A') (A') (A')
                 (A') (A") (A') (A") (A') (A')
 The electronic state of the initial guess is 1-A'.
 Leave Link  401 at Mon Mar 20 17:33:48 2023, MaxMem=   754974720 cpu:               1.7 elap:               0.9
 (Enter /opt/cluster/programs/g16-c.01/g16/l502.exe)
 Keep R1 ints in memory in symmetry-blocked form, NReq=3831793.
 FoFCou: FMM=F IPFlag=           0 FMFlag=           0 FMFlg1=           0
         NFxFlg=           0 DoJE=F BraDBF=F KetDBF=F FulRan=T
         wScrn=  0.000000 ICntrl=       600 IOpCl=  0 I1Cent=           0 NGrid=           0
         NMat0=    1 NMatS0=    861 NMatT0=    0 NMatD0=    1 NMtDS0=    0 NMtDT0=    0
 Petite list used in FoFCou.
 Closed shell SCF:
 Using DIIS extrapolation, IDIIS=  1040.
 NGot=   754974720 LenX=   754771907 LenY=   754769617
 Requested convergence on RMS density matrix=1.00D-08 within 200 cycles.
 Requested convergence on MAX density matrix=1.00D-06.
 Requested convergence on             energy=1.00D-06.
 No special actions if energy rises.

 Cycle   1  Pass 1  IDiag  1:
 E= -76.2855959652819    
 DIIS: error= 5.33D-02 at cycle   1 NSaved=   1.
 NSaved= 1 IEnMin= 1 EnMin= -76.2855959652819     IErMin= 1 ErrMin= 5.33D-02
 ErrMax= 5.33D-02  0.00D+00 EMaxC= 1.00D-01 BMatC= 9.02D-02 BMatP= 9.02D-02
 IDIUse=3 WtCom= 4.67D-01 WtEn= 5.33D-01
 Coeff-Com:  0.100D+01
 Coeff-En:   0.100D+01
 Coeff:      0.100D+01
 Gap=     0.174 Goal=   None    Shift=    0.000
 GapD=    0.174 DampG=1.000 DampE=0.500 DampFc=0.5000 IDamp=-1.
 Damping current iteration by 5.00D-01
 RMSDP=1.01D-02 MaxDP=1.64D-01              OVMax= 2.05D-01

 Cycle   2  Pass 1  IDiag  1:
 E= -76.3027111794864     Delta-E=       -0.017115214204 Rises=F Damp=T
 DIIS: error= 1.80D-02 at cycle   2 NSaved=   2.
 NSaved= 2 IEnMin= 2 EnMin= -76.3027111794864     IErMin= 2 ErrMin= 1.80D-02
 ErrMax= 1.80D-02  0.00D+00 EMaxC= 1.00D-01 BMatC= 8.53D-03 BMatP= 9.02D-02
 IDIUse=3 WtCom= 8.20D-01 WtEn= 1.80D-01
 Coeff-Com:  0.224D+00 0.776D+00
 Coeff-En:   0.376D+00 0.624D+00
 Coeff:      0.251D+00 0.749D+00
 Gap=     0.309 Goal=   None    Shift=    0.000
 RMSDP=1.25D-03 MaxDP=1.62D-02 DE=-1.71D-02 OVMax= 1.29D-01

 Cycle   3  Pass 1  IDiag  1:
 E= -76.3547443491108     Delta-E=       -0.052033169624 Rises=F Damp=F
 DIIS: error= 1.44D-03 at cycle   3 NSaved=   3.
 NSaved= 3 IEnMin= 3 EnMin= -76.3547443491108     IErMin= 3 ErrMin= 1.44D-03
 ErrMax= 1.44D-03  0.00D+00 EMaxC= 1.00D-01 BMatC= 7.68D-05 BMatP= 8.53D-03
 IDIUse=3 WtCom= 9.86D-01 WtEn= 1.44D-02
 Coeff-Com:  0.189D-01-0.280D-01 0.101D+01
 Coeff-En:   0.000D+00 0.000D+00 0.100D+01
 Coeff:      0.186D-01-0.276D-01 0.101D+01
 Gap=     0.320 Goal=   None    Shift=    0.000
 RMSDP=1.45D-04 MaxDP=1.84D-03 DE=-5.20D-02 OVMax= 1.85D-03

 Cycle   4  Pass 1  IDiag  1:
 E= -76.3547934961750     Delta-E=       -0.000049147064 Rises=F Damp=F
 DIIS: error= 2.75D-04 at cycle   4 NSaved=   4.
 NSaved= 4 IEnMin= 4 EnMin= -76.3547934961750     IErMin= 4 ErrMin= 2.75D-04
 ErrMax= 2.75D-04  0.00D+00 EMaxC= 1.00D-01 BMatC= 3.49D-06 BMatP= 7.68D-05
 IDIUse=3 WtCom= 9.97D-01 WtEn= 2.75D-03
 Coeff-Com:  0.462D-02-0.182D-01 0.241D+00 0.773D+00
 Coeff-En:   0.000D+00 0.000D+00 0.000D+00 0.100D+01
 Coeff:      0.461D-02-0.182D-01 0.240D+00 0.773D+00
 Gap=     0.320 Goal=   None    Shift=    0.000
 RMSDP=2.02D-05 MaxDP=2.96D-04 DE=-4.91D-05 OVMax= 4.45D-04

 Cycle   5  Pass 1  IDiag  1:
 E= -76.3547957948168     Delta-E=       -0.000002298642 Rises=F Damp=F
 DIIS: error= 9.75D-05 at cycle   5 NSaved=   5.
 NSaved= 5 IEnMin= 5 EnMin= -76.3547957948168     IErMin= 5 ErrMin= 9.75D-05
 ErrMax= 9.75D-05  0.00D+00 EMaxC= 1.00D-01 BMatC= 2.41D-07 BMatP= 3.49D-06
 IDIUse=1 WtCom= 1.00D+00 WtEn= 0.00D+00
 Coeff-Com:  0.129D-02-0.218D-02 0.532D-02 0.605D-01 0.935D+00
 Coeff:      0.129D-02-0.218D-02 0.532D-02 0.605D-01 0.935D+00
 Gap=     0.321 Goal=   None    Shift=    0.000
 RMSDP=6.85D-06 MaxDP=1.06D-04 DE=-2.30D-06 OVMax= 1.41D-04

 Cycle   6  Pass 1  IDiag  1:
 E= -76.3547959826926     Delta-E=       -0.000000187876 Rises=F Damp=F
 DIIS: error= 6.23D-06 at cycle   6 NSaved=   6.
 NSaved= 6 IEnMin= 6 EnMin= -76.3547959826926     IErMin= 6 ErrMin= 6.23D-06
 ErrMax= 6.23D-06  0.00D+00 EMaxC= 1.00D-01 BMatC= 1.05D-09 BMatP= 2.41D-07
 IDIUse=1 WtCom= 1.00D+00 WtEn= 0.00D+00
 Coeff-Com:  0.225D-03-0.350D-03-0.354D-04 0.336D-02 0.148D+00 0.849D+00
 Coeff:      0.225D-03-0.350D-03-0.354D-04 0.336D-02 0.148D+00 0.849D+00
 Gap=     0.321 Goal=   None    Shift=    0.000
 RMSDP=6.01D-07 MaxDP=7.24D-06 DE=-1.88D-07 OVMax= 1.07D-05

 Cycle   7  Pass 1  IDiag  1:
 E= -76.3547959835530     Delta-E=       -0.000000000860 Rises=F Damp=F
 DIIS: error= 8.34D-07 at cycle   7 NSaved=   7.
 NSaved= 7 IEnMin= 7 EnMin= -76.3547959835530     IErMin= 7 ErrMin= 8.34D-07
 ErrMax= 8.34D-07  0.00D+00 EMaxC= 1.00D-01 BMatC= 3.67D-11 BMatP= 1.05D-09
 IDIUse=1 WtCom= 1.00D+00 WtEn= 0.00D+00
 Coeff-Com: -0.327D-04 0.485D-04-0.198D-03-0.305D-02-0.315D-01 0.153D+00
 Coeff-Com:  0.882D+00
 Coeff:     -0.327D-04 0.485D-04-0.198D-03-0.305D-02-0.315D-01 0.153D+00
 Coeff:      0.882D+00
 Gap=     0.321 Goal=   None    Shift=    0.000
 RMSDP=1.18D-07 MaxDP=1.56D-06 DE=-8.60D-10 OVMax= 2.43D-06

 Cycle   8  Pass 1  IDiag  1:
 E= -76.3547959835855     Delta-E=       -0.000000000033 Rises=F Damp=F
 DIIS: error= 9.42D-08 at cycle   8 NSaved=   8.
 NSaved= 8 IEnMin= 8 EnMin= -76.3547959835855     IErMin= 8 ErrMin= 9.42D-08
 ErrMax= 9.42D-08  0.00D+00 EMaxC= 1.00D-01 BMatC= 3.07D-13 BMatP= 3.67D-11
 IDIUse=1 WtCom= 1.00D+00 WtEn= 0.00D+00
 Coeff-Com: -0.127D-05 0.234D-05-0.121D-04 0.153D-03 0.790D-03-0.119D-01
 Coeff-Com: -0.601D-01 0.107D+01
 Coeff:     -0.127D-05 0.234D-05-0.121D-04 0.153D-03 0.790D-03-0.119D-01
 Coeff:     -0.601D-01 0.107D+01
 Gap=     0.321 Goal=   None    Shift=    0.000
 RMSDP=1.03D-08 MaxDP=2.05D-07 DE=-3.26D-11 OVMax= 3.51D-07

 Cycle   9  Pass 1  IDiag  1:
 E= -76.3547959835859     Delta-E=       -0.000000000000 Rises=F Damp=F
 DIIS: error= 6.97D-09 at cycle   9 NSaved=   9.
 NSaved= 9 IEnMin= 9 EnMin= -76.3547959835859     IErMin= 9 ErrMin= 6.97D-09
 ErrMax= 6.97D-09  0.00D+00 EMaxC= 1.00D-01 BMatC= 1.27D-15 BMatP= 3.07D-13
 IDIUse=1 WtCom= 1.00D+00 WtEn= 0.00D+00
 Coeff-Com:  0.220D-06-0.297D-06 0.870D-06 0.253D-04 0.309D-03-0.143D-02
 Coeff-Com: -0.750D-02 0.985D-02 0.999D+00
 Coeff:      0.220D-06-0.297D-06 0.870D-06 0.253D-04 0.309D-03-0.143D-02
 Coeff:     -0.750D-02 0.985D-02 0.999D+00
 Gap=     0.321 Goal=   None    Shift=    0.000
 RMSDP=9.13D-10 MaxDP=1.55D-08 DE=-3.13D-13 OVMax= 2.54D-08

 SCF Done:  E(RPBE1PBE) =  -76.3547959836     A.U. after    9 cycles
            NFock=  9  Conv=0.91D-09     -V/T= 2.0052
 KE= 7.596266691650D+01 PE=-1.989230316199D+02 EE= 3.740391679914D+01
 Leave Link  502 at Mon Mar 20 17:33:51 2023, MaxMem=   754974720 cpu:               5.4 elap:               2.3
 (Enter /opt/cluster/programs/g16-c.01/g16/l601.exe)
 Copying SCF densities to generalized density rwf, IOpCl= 0 IROHF=0.

 **********************************************************************

            Population analysis using the SCF Density.

 **********************************************************************

 Orbital symmetries:
       Occupied  (A') (A') (A') (A') (A")
       Virtual   (A') (A') (A') (A") (A') (A') (A') (A') (A") (A')
                 (A") (A') (A') (A') (A') (A') (A") (A') (A") (A')
                 (A") (A') (A') (A') (A") (A") (A') (A') (A') (A')
                 (A') (A") (A') (A") (A') (A')
 The electronic state is 1-A'.
 Alpha  occ. eigenvalues --  -19.23002  -1.05028  -0.55172  -0.41115  -0.33325
 Alpha virt. eigenvalues --   -0.01267   0.03261   0.11130   0.13168   0.14070
 Alpha virt. eigenvalues --    0.16732   0.19166   0.23964   0.29059   0.30557
 Alpha virt. eigenvalues --    0.33520   0.45358   0.50699   0.54786   0.64191
 Alpha virt. eigenvalues --    0.75818   0.91773   0.93029   0.96434   1.08538
 Alpha virt. eigenvalues --    1.21739   1.23061   1.34767   1.75215   1.76097
 Alpha virt. eigenvalues --    1.87218   2.11288   2.13162   2.34375   2.45021
 Alpha virt. eigenvalues --    2.67145   3.30145   3.32055   3.33638   3.62176
 Alpha virt. eigenvalues --    3.93974
          Condensed to atoms (all electrons):
               1          2          3
     1  O    7.571447   0.337320   0.311758
     2  H    0.337320   0.668688  -0.064297
     3  H    0.311758  -0.064297   0.590303
 Mulliken charges:
               1
     1  O   -0.220526
     2  H    0.058290
     3  H    0.162236
 Sum of Mulliken charges =   0.00000
 Mulliken charges with hydrogens summed into heavy atoms:
               1
     1  O    0.000000
 Electronic spatial extent (au):  <R**2>=             19.9460
 Charge=              0.0000 electrons
 Dipole moment (field-independent basis, Debye):
    X=              0.0476    Y=             -1.8700    Z=              0.0000  Tot=              1.8706
 Quadrupole moment (field-independent basis, Debye-Ang):
   XX=             -4.4912   YY=             -6.3991   ZZ=             -7.7449
   XY=              0.2690   XZ=              0.0000   YZ=              0.0000
 Traceless Quadrupole moment (field-independent basis, Debye-Ang):
   XX=              1.7205   YY=             -0.1873   ZZ=             -1.5332
   XY=              0.2690   XZ=              0.0000   YZ=              0.0000
 Octapole moment (field-independent basis, Debye-Ang**2):
  XXX=              0.1394  YYY=             -1.0405  ZZZ=              0.0000  XYY=             -0.1763
  XXY=             -1.2725  XXZ=              0.0000  XZZ=              0.0586  YZZ=             -0.2349
  YYZ=              0.0000  XYZ=              0.0000
 Hexadecapole moment (field-independent basis, Debye-Ang**3):
 XXXX=             -6.6158 YYYY=             -8.0362 ZZZZ=             -7.6295 XXXY=             -0.0006
 XXXZ=              0.0000 YYYX=             -0.0074 YYYZ=              0.0000 ZZZX=              0.0000
 ZZZY=              0.0000 XXYY=             -2.1435 XXZZ=             -2.6871 YYZZ=             -2.6662
 XXYZ=              0.0000 YYXZ=              0.0000 ZZXY=             -0.0700
 N-N= 9.201651920692D+00 E-N=-1.989230313876D+02  KE= 7.596266691650D+01
 Symmetry A'   KE= 7.152114571860D+01
 Symmetry A"   KE= 4.441521197900D+00
 No NMR shielding tensors so no spin-rotation constants.
 Leave Link  601 at Mon Mar 20 17:33:51 2023, MaxMem=   754974720 cpu:               0.9 elap:               0.4
 (Enter /opt/cluster/programs/g16-c.01/g16/l9999.exe)
 Unable to Open any file for archive entry.
 1\1\GINC-NODE60\SP\RPBE1PBE\Aug-CC-pVDZ\H2O1\BOITTIER\20-Mar-2023\0\\#
 P PBE1PBE/aug-cc-pVDZ scf(maxcycle=200)\\Gaussian input\\0,1\O,0,0.,0.
 11751,0.\H,0,0.7183372325,-0.4395112028,0.\H,0,-0.7977100455,-0.500340
 8585,0.\\Version=ES64L-G16RevC.01\State=1-A'\HF=-76.354796\RMSD=9.130e
 -10\Dipole=-0.0309045,-0.7353139,0.\Quadrupole=1.2996036,-0.159732,-1.
 1398716,0.1027826,0.,0.\PG=CS [SG(H2O1)]\\@
 The archive entry for this job was punched.


 IF AT FIRST YOU DON'T SUCCEED, TRY, TRY AGAIN.
 THEN GIVE UP;
 THERE'S NO USE BEING A DAMN FOOL ABOUT IT.

                                 -- W. C. FIELDS
 Job cpu time:       0 days  0 hours  0 minutes 11.0 seconds.
 Elapsed time:       0 days  0 hours  0 minutes  5.0 seconds.
 File lengths (MBytes):  RWF=      6 Int=      0 D2E=      0 Chk=      1 Scr=      1
 Normal termination of Gaussian 16 at Mon Mar 20 17:33:51 2023.
