 Entering Gaussian System, Link 0=/opt/cluster/programs/g16-c.01/g16/g16
 Input=/scratch/boittier/jobs/tmp.7262252/gaussian_102_water_ccsdt_adz.com
 Output=/scratch/boittier/jobs/tmp.7262252/gaussian_102_water_ccsdt_adz.out
 Initial command:
 /opt/cluster/programs/g16-c.01/g16/l1.exe "/scratch/boittier/jobs/tmp.7262252/Gau-175211.inp" -scrdir="/scratch/boittier/jobs/tmp.7262252/"
 Entering Link 1 = /opt/cluster/programs/g16-c.01/g16/l1.exe PID=    175212.
  
 Copyright (c) 1988-2019, Gaussian, Inc.  All Rights Reserved.
  
 This is part of the Gaussian(R) 16 program.  It is based on
 the Gaussian(R) 09 system (copyright 2009, Gaussian, Inc.),
 the Gaussian(R) 03 system (copyright 2003, Gaussian, Inc.),
 the Gaussian(R) 98 system (copyright 1998, Gaussian, Inc.),
 the Gaussian(R) 94 system (copyright 1995, Gaussian, Inc.),
 the Gaussian 92(TM) system (copyright 1992, Gaussian, Inc.),
 the Gaussian 90(TM) system (copyright 1990, Gaussian, Inc.),
 the Gaussian 88(TM) system (copyright 1988, Gaussian, Inc.),
 the Gaussian 86(TM) system (copyright 1986, Carnegie Mellon
 University), and the Gaussian 82(TM) system (copyright 1983,
 Carnegie Mellon University). Gaussian is a federally registered
 trademark of Gaussian, Inc.
  
 This software contains proprietary and confidential information,
 including trade secrets, belonging to Gaussian, Inc.
  
 This software is provided under written license and may be
 used, copied, transmitted, or stored only in accord with that
 written license.
  
 The following legend is applicable only to US Government
 contracts under FAR:
  
                    RESTRICTED RIGHTS LEGEND
  
 Use, reproduction and disclosure by the US Government is
 subject to restrictions as set forth in subparagraphs (a)
 and (c) of the Commercial Computer Software - Restricted
 Rights clause in FAR 52.227-19.
  
 Gaussian, Inc.
 340 Quinnipiac St., Bldg. 40, Wallingford CT 06492
  
  
 ---------------------------------------------------------------
 Warning -- This program may not be used in any manner that
 competes with the business of Gaussian, Inc. or will provide
 assistance to any competitor of Gaussian, Inc.  The licensee
 of this program is prohibited from giving any competitor of
 Gaussian, Inc. access to this program.  By using this program,
 the user acknowledges that Gaussian, Inc. is engaged in the
 business of creating and licensing software in the field of
 computational chemistry and represents and warrants to the
 licensee that it is not a competitor of Gaussian, Inc. and that
 it will not use this program in any manner prohibited above.
 ---------------------------------------------------------------
  

 Cite this work as:
 Gaussian 16, Revision C.01,
 M. J. Frisch, G. W. Trucks, H. B. Schlegel, G. E. Scuseria, 
 M. A. Robb, J. R. Cheeseman, G. Scalmani, V. Barone, 
 G. A. Petersson, H. Nakatsuji, X. Li, M. Caricato, A. V. Marenich, 
 J. Bloino, B. G. Janesko, R. Gomperts, B. Mennucci, H. P. Hratchian, 
 J. V. Ortiz, A. F. Izmaylov, J. L. Sonnenberg, D. Williams-Young, 
 F. Ding, F. Lipparini, F. Egidi, J. Goings, B. Peng, A. Petrone, 
 T. Henderson, D. Ranasinghe, V. G. Zakrzewski, J. Gao, N. Rega, 
 G. Zheng, W. Liang, M. Hada, M. Ehara, K. Toyota, R. Fukuda, 
 J. Hasegawa, M. Ishida, T. Nakajima, Y. Honda, O. Kitao, H. Nakai, 
 T. Vreven, K. Throssell, J. A. Montgomery, Jr., J. E. Peralta, 
 F. Ogliaro, M. J. Bearpark, J. J. Heyd, E. N. Brothers, K. N. Kudin, 
 V. N. Staroverov, T. A. Keith, R. Kobayashi, J. Normand, 
 K. Raghavachari, A. P. Rendell, J. C. Burant, S. S. Iyengar, 
 J. Tomasi, M. Cossi, J. M. Millam, M. Klene, C. Adamo, R. Cammi, 
 J. W. Ochterski, R. L. Martin, K. Morokuma, O. Farkas, 
 J. B. Foresman, and D. J. Fox, Gaussian, Inc., Wallingford CT, 2019.
 
 ******************************************
 Gaussian 16:  ES64L-G16RevC.01  3-Jul-2019
                 8-Feb-2023 
 ******************************************
 %nproc=4
 Will use up to    4 processors via shared memory.
 %mem=5760MB
 %chk=gaussian_102_water_ccsdt_adz.chk
 ----------------------------------------
 #P CCSD(T)/aug-cc-pVDZ scf(maxcycle=200)
 ----------------------------------------
 1/38=1,172=1/1;
 2/12=2,17=6,18=5,40=1/2;
 3/5=16,7=10,11=9,25=1,30=1/1,2,3;
 4//1;
 5/5=2,7=200,38=5/2;
 8/6=4,9=120000,10=1/1,4;
 9/5=7,14=2/13;
 6/7=2,8=2,9=2,10=2/1;
 99/5=1,9=1/99;
 Leave Link    1 at Wed Feb  8 14:49:36 2023, MaxMem=   754974720 cpu:               0.1 elap:               0.0
 (Enter /opt/cluster/programs/g16-c.01/g16/l101.exe)
 --------------
 Gaussian input
 --------------
 Symbolic Z-matrix:
 Charge =  0 Multiplicity = 1
 O                     0.        0.11751   0. 
 H                     0.75785  -0.47015   0. 
 H                    -0.59651  -0.69629   0. 
 
 ITRead=  0  0  0
 MicOpt= -1 -1 -1
 NAtoms=      3 NQM=        3 NQMF=       0 NMMI=      0 NMMIF=      0
                NMic=       0 NMicF=      0.
                    Isotopes and Nuclear Properties:
 (Nuclear quadrupole moments (NQMom) in fm**2, nuclear magnetic moments (NMagM)
  in nuclear magnetons)

  Atom         1           2           3
 IAtWgt=          16           1           1
 AtmWgt=  15.9949146   1.0078250   1.0078250
 NucSpn=           0           1           1
 AtZEff=  -0.0000000  -0.0000000  -0.0000000
 NQMom=    0.0000000   0.0000000   0.0000000
 NMagM=    0.0000000   2.7928460   2.7928460
 AtZNuc=   8.0000000   1.0000000   1.0000000
 Leave Link  101 at Wed Feb  8 14:49:36 2023, MaxMem=   754974720 cpu:               0.5 elap:               0.2
 (Enter /opt/cluster/programs/g16-c.01/g16/l202.exe)
                          Input orientation:                          
 ---------------------------------------------------------------------
 Center     Atomic      Atomic             Coordinates (Angstroms)
 Number     Number       Type             X           Y           Z
 ---------------------------------------------------------------------
      1          8           0        0.000000    0.117510    0.000000
      2          1           0        0.757850   -0.470150    0.000000
      3          1           0       -0.596505   -0.696285    0.000000
 ---------------------------------------------------------------------
                    Distance matrix (angstroms):
                    1          2          3
     1  O    0.000000
     2  H    0.959000   0.000000
     3  H    1.009000   1.373104   0.000000
 Stoichiometry    H2O
 Framework group  CS[SG(H2O)]
 Deg. of freedom     3
 Full point group                 CS      NOp   2
 Largest Abelian subgroup         CS      NOp   2
 Largest concise Abelian subgroup C1      NOp   1
                         Standard orientation:                         
 ---------------------------------------------------------------------
 Center     Atomic      Atomic             Coordinates (Angstroms)
 Number     Number       Type             X           Y           Z
 ---------------------------------------------------------------------
      1          8           0        0.000000    0.141071    0.000000
      2          1           0        0.685666   -0.529409    0.000000
      3          1           0       -0.685666   -0.599161    0.000000
 ---------------------------------------------------------------------
 Rotational constants (GHZ):         584.2816013         517.9473711         274.5592131
 Leave Link  202 at Wed Feb  8 14:49:36 2023, MaxMem=   754974720 cpu:               0.1 elap:               0.0
 (Enter /opt/cluster/programs/g16-c.01/g16/l301.exe)
 Standard basis: Aug-CC-pVDZ (5D, 7F)
 Ernie: Thresh=  0.10000D-02 Tol=  0.10000D-05 Strict=F.
 Ernie:  2 primitive shells out of 39 were deleted.
 There are    32 symmetry adapted cartesian basis functions of A'  symmetry.
 There are    11 symmetry adapted cartesian basis functions of A"  symmetry.
 There are    30 symmetry adapted basis functions of A'  symmetry.
 There are    11 symmetry adapted basis functions of A"  symmetry.
    41 basis functions,    65 primitive gaussians,    43 cartesian basis functions
     5 alpha electrons        5 beta electrons
       nuclear repulsion energy         8.9954527860 Hartrees.
 IExCor=    0 DFT=F Ex=HF Corr=None ExCW=0 ScaHFX=  1.000000
 ScaDFX=  1.000000  1.000000  1.000000  1.000000 ScalE2=  1.000000  1.000000
 IRadAn=      5 IRanWt=     -1 IRanGd=            0 ICorTp=0 IEmpDi=  4
 NAtoms=    3 NActive=    3 NUniq=    3 SFac= 1.00D+00 NAtFMM=   60 NAOKFM=F Big=F
 Integral buffers will be    131072 words long.
 Raffenetti 1 integral format.
 Two-electron integral symmetry is turned on.
 Leave Link  301 at Wed Feb  8 14:49:36 2023, MaxMem=   754974720 cpu:               0.1 elap:               0.0
 (Enter /opt/cluster/programs/g16-c.01/g16/l302.exe)
 NPDir=0 NMtPBC=     1 NCelOv=     1 NCel=       1 NClECP=     1 NCelD=      1
         NCelK=      1 NCelE2=     1 NClLst=     1 CellRange=     0.0.
 One-electron integrals computed using PRISM.
 One-electron integral symmetry used in STVInt
 NBasis=    41 RedAO= T EigKep=  2.10D-03  NBF=    30    11
 NBsUse=    41 1.00D-06 EigRej= -1.00D+00 NBFU=    30    11
 Leave Link  302 at Wed Feb  8 14:49:37 2023, MaxMem=   754974720 cpu:               0.5 elap:               0.1
 (Enter /opt/cluster/programs/g16-c.01/g16/l303.exe)
 DipDrv:  MaxL=1.
 Leave Link  303 at Wed Feb  8 14:49:37 2023, MaxMem=   754974720 cpu:               0.4 elap:               0.1
 (Enter /opt/cluster/programs/g16-c.01/g16/l401.exe)
 ExpMin= 2.97D-02 ExpMax= 1.17D+04 ExpMxC= 4.01D+02 IAcc=3 IRadAn=         5 AccDes= 0.00D+00
 Harris functional with IExCor=  205 and IRadAn=       5 diagonalized for initial guess.
 HarFok:  IExCor=  205 AccDes= 0.00D+00 IRadAn=         5 IDoV= 1 UseB2=F ITyADJ=14
 ICtDFT=  3500011 ScaDFX=  1.000000  1.000000  1.000000  1.000000
 FoFCou: FMM=F IPFlag=           0 FMFlag=      100000 FMFlg1=           0
         NFxFlg=           0 DoJE=T BraDBF=F KetDBF=T FulRan=T
         wScrn=  0.000000 ICntrl=       500 IOpCl=  0 I1Cent=   200000004 NGrid=           0
         NMat0=    1 NMatS0=      1 NMatT0=    0 NMatD0=    1 NMtDS0=    0 NMtDT0=    0
 Petite list used in FoFCou.
 Harris En= -76.1148897759124    
 JPrj=0 DoOrth=F DoCkMO=F.
 Initial guess orbital symmetries:
       Occupied  (A') (A') (A') (A') (A")
       Virtual   (A') (A') (A') (A") (A') (A') (A') (A') (A') (A")
                 (A") (A') (A') (A') (A') (A') (A") (A') (A") (A')
                 (A") (A') (A') (A") (A') (A") (A') (A') (A') (A')
                 (A') (A") (A') (A") (A') (A')
 The electronic state of the initial guess is 1-A'.
 Leave Link  401 at Wed Feb  8 14:49:37 2023, MaxMem=   754974720 cpu:               0.7 elap:               0.2
 (Enter /opt/cluster/programs/g16-c.01/g16/l502.exe)
 Keep R1 ints in memory in symmetry-blocked form, NReq=1210668.
 FoFCou: FMM=F IPFlag=           0 FMFlag=           0 FMFlg1=           0
         NFxFlg=           0 DoJE=F BraDBF=F KetDBF=F FulRan=T
         wScrn=  0.000000 ICntrl=       600 IOpCl=  0 I1Cent=           0 NGrid=           0
         NMat0=    1 NMatS0=    861 NMatT0=    0 NMatD0=    1 NMtDS0=    0 NMtDT0=    0
 Petite list used in FoFCou.
 Closed shell SCF:
 Using DIIS extrapolation, IDIIS=  1040.
 NGot=   754974720 LenX=   754771907 LenY=   754769617
 Requested convergence on RMS density matrix=1.00D-08 within 200 cycles.
 Requested convergence on MAX density matrix=1.00D-06.
 Requested convergence on             energy=1.00D-06.
 No special actions if energy rises.

 Cycle   1  Pass 1  IDiag  1:
 E= -75.9566614971580    
 DIIS: error= 4.86D-02 at cycle   1 NSaved=   1.
 NSaved= 1 IEnMin= 1 EnMin= -75.9566614971580     IErMin= 1 ErrMin= 4.86D-02
 ErrMax= 4.86D-02  0.00D+00 EMaxC= 1.00D-01 BMatC= 1.11D-01 BMatP= 1.11D-01
 IDIUse=3 WtCom= 5.14D-01 WtEn= 4.86D-01
 Coeff-Com:  0.100D+01
 Coeff-En:   0.100D+01
 Coeff:      0.100D+01
 Gap=     0.463 Goal=   None    Shift=    0.000
 GapD=    0.463 DampG=2.000 DampE=0.500 DampFc=1.0000 IDamp=-1.
 RMSDP=6.18D-03 MaxDP=1.12D-01              OVMax= 1.24D-01

 Cycle   2  Pass 1  IDiag  1:
 E= -75.9971127814160     Delta-E=       -0.040451284258 Rises=F Damp=F
 DIIS: error= 4.08D-02 at cycle   2 NSaved=   2.
 NSaved= 2 IEnMin= 2 EnMin= -75.9971127814160     IErMin= 2 ErrMin= 4.08D-02
 ErrMax= 4.08D-02  0.00D+00 EMaxC= 1.00D-01 BMatC= 4.62D-02 BMatP= 1.11D-01
 IDIUse=3 WtCom= 5.92D-01 WtEn= 4.08D-01
 Coeff-Com:  0.382D+00 0.618D+00
 Coeff-En:   0.239D+00 0.761D+00
 Coeff:      0.323D+00 0.677D+00
 Gap=     0.560 Goal=   None    Shift=    0.000
 RMSDP=3.00D-03 MaxDP=5.42D-02 DE=-4.05D-02 OVMax= 5.91D-02

 Cycle   3  Pass 1  IDiag  1:
 E= -76.0293378461681     Delta-E=       -0.032225064752 Rises=F Damp=F
 DIIS: error= 4.19D-03 at cycle   3 NSaved=   3.
 NSaved= 3 IEnMin= 3 EnMin= -76.0293378461681     IErMin= 3 ErrMin= 4.19D-03
 ErrMax= 4.19D-03  0.00D+00 EMaxC= 1.00D-01 BMatC= 1.08D-03 BMatP= 4.62D-02
 IDIUse=3 WtCom= 9.58D-01 WtEn= 4.19D-02
 Coeff-Com: -0.396D-01 0.865D-01 0.953D+00
 Coeff-En:   0.000D+00 0.000D+00 0.100D+01
 Coeff:     -0.380D-01 0.828D-01 0.955D+00
 Gap=     0.543 Goal=   None    Shift=    0.000
 RMSDP=4.59D-04 MaxDP=8.36D-03 DE=-3.22D-02 OVMax= 9.58D-03

 Cycle   4  Pass 1  IDiag  1:
 E= -76.0301843693931     Delta-E=       -0.000846523225 Rises=F Damp=F
 DIIS: error= 7.60D-04 at cycle   4 NSaved=   4.
 NSaved= 4 IEnMin= 4 EnMin= -76.0301843693931     IErMin= 4 ErrMin= 7.60D-04
 ErrMax= 7.60D-04  0.00D+00 EMaxC= 1.00D-01 BMatC= 8.44D-06 BMatP= 1.08D-03
 IDIUse=3 WtCom= 9.92D-01 WtEn= 7.60D-03
 Coeff-Com:  0.998D-02-0.429D-01-0.351D+00 0.138D+01
 Coeff-En:   0.000D+00 0.000D+00 0.000D+00 0.100D+01
 Coeff:      0.991D-02-0.425D-01-0.349D+00 0.138D+01
 Gap=     0.545 Goal=   None    Shift=    0.000
 RMSDP=1.18D-04 MaxDP=1.43D-03 DE=-8.47D-04 OVMax= 2.21D-03

 Cycle   5  Pass 1  IDiag  1:
 E= -76.0302057056318     Delta-E=       -0.000021336239 Rises=F Damp=F
 DIIS: error= 2.02D-04 at cycle   5 NSaved=   5.
 NSaved= 5 IEnMin= 5 EnMin= -76.0302057056318     IErMin= 5 ErrMin= 2.02D-04
 ErrMax= 2.02D-04  0.00D+00 EMaxC= 1.00D-01 BMatC= 3.60D-07 BMatP= 8.44D-06
 IDIUse=3 WtCom= 9.98D-01 WtEn= 2.02D-03
 Coeff-Com: -0.702D-03 0.567D-02 0.448D-01-0.337D+00 0.129D+01
 Coeff-En:   0.000D+00 0.000D+00 0.000D+00 0.000D+00 0.100D+01
 Coeff:     -0.700D-03 0.565D-02 0.447D-01-0.337D+00 0.129D+01
 Gap=     0.545 Goal=   None    Shift=    0.000
 RMSDP=2.65D-05 MaxDP=4.55D-04 DE=-2.13D-05 OVMax= 6.27D-04

 Cycle   6  Pass 1  IDiag  1:
 E= -76.0302067759940     Delta-E=       -0.000001070362 Rises=F Damp=F
 DIIS: error= 3.40D-05 at cycle   6 NSaved=   6.
 NSaved= 6 IEnMin= 6 EnMin= -76.0302067759940     IErMin= 6 ErrMin= 3.40D-05
 ErrMax= 3.40D-05  0.00D+00 EMaxC= 1.00D-01 BMatC= 1.30D-08 BMatP= 3.60D-07
 IDIUse=1 WtCom= 1.00D+00 WtEn= 0.00D+00
 Coeff-Com: -0.353D-03 0.121D-02 0.959D-02-0.160D-01-0.214D+00 0.122D+01
 Coeff:     -0.353D-03 0.121D-02 0.959D-02-0.160D-01-0.214D+00 0.122D+01
 Gap=     0.545 Goal=   None    Shift=    0.000
 RMSDP=4.50D-06 MaxDP=9.64D-05 DE=-1.07D-06 OVMax= 1.30D-04

 Cycle   7  Pass 1  IDiag  1:
 E= -76.0302068140796     Delta-E=       -0.000000038086 Rises=F Damp=F
 DIIS: error= 5.05D-06 at cycle   7 NSaved=   7.
 NSaved= 7 IEnMin= 7 EnMin= -76.0302068140796     IErMin= 7 ErrMin= 5.05D-06
 ErrMax= 5.05D-06  0.00D+00 EMaxC= 1.00D-01 BMatC= 5.15D-10 BMatP= 1.30D-08
 IDIUse=1 WtCom= 1.00D+00 WtEn= 0.00D+00
 Coeff-Com:  0.127D-03-0.591D-03-0.498D-02 0.228D-01-0.123D-01-0.270D+00
 Coeff-Com:  0.127D+01
 Coeff:      0.127D-03-0.591D-03-0.498D-02 0.228D-01-0.123D-01-0.270D+00
 Coeff:      0.127D+01
 Gap=     0.545 Goal=   None    Shift=    0.000
 RMSDP=8.30D-07 MaxDP=1.14D-05 DE=-3.81D-08 OVMax= 2.08D-05

 Cycle   8  Pass 1  IDiag  1:
 E= -76.0302068152296     Delta-E=       -0.000000001150 Rises=F Damp=F
 DIIS: error= 6.38D-07 at cycle   8 NSaved=   8.
 NSaved= 8 IEnMin= 8 EnMin= -76.0302068152296     IErMin= 8 ErrMin= 6.38D-07
 ErrMax= 6.38D-07  0.00D+00 EMaxC= 1.00D-01 BMatC= 1.12D-11 BMatP= 5.15D-10
 IDIUse=1 WtCom= 1.00D+00 WtEn= 0.00D+00
 Coeff-Com: -0.238D-04 0.122D-03 0.107D-02-0.576D-02 0.850D-02 0.446D-01
 Coeff-Com: -0.363D+00 0.131D+01
 Coeff:     -0.238D-04 0.122D-03 0.107D-02-0.576D-02 0.850D-02 0.446D-01
 Coeff:     -0.363D+00 0.131D+01
 Gap=     0.545 Goal=   None    Shift=    0.000
 RMSDP=1.77D-07 MaxDP=2.36D-06 DE=-1.15D-09 OVMax= 3.26D-06

 Cycle   9  Pass 1  IDiag  1:
 E= -76.0302068152593     Delta-E=       -0.000000000030 Rises=F Damp=F
 DIIS: error= 1.03D-07 at cycle   9 NSaved=   9.
 NSaved= 9 IEnMin= 9 EnMin= -76.0302068152593     IErMin= 9 ErrMin= 1.03D-07
 ErrMax= 1.03D-07  0.00D+00 EMaxC= 1.00D-01 BMatC= 3.67D-13 BMatP= 1.12D-11
 IDIUse=1 WtCom= 1.00D+00 WtEn= 0.00D+00
 Coeff-Com:  0.149D-05-0.863D-05-0.952D-04 0.661D-03-0.157D-02-0.269D-02
 Coeff-Com:  0.509D-01-0.306D+00 0.126D+01
 Coeff:      0.149D-05-0.863D-05-0.952D-04 0.661D-03-0.157D-02-0.269D-02
 Coeff:      0.509D-01-0.306D+00 0.126D+01
 Gap=     0.545 Goal=   None    Shift=    0.000
 RMSDP=2.71D-08 MaxDP=3.27D-07 DE=-2.97D-11 OVMax= 4.86D-07

 Cycle  10  Pass 1  IDiag  1:
 E= -76.0302068152600     Delta-E=       -0.000000000001 Rises=F Damp=F
 DIIS: error= 2.58D-08 at cycle  10 NSaved=  10.
 NSaved=10 IEnMin=10 EnMin= -76.0302068152600     IErMin=10 ErrMin= 2.58D-08
 ErrMax= 2.58D-08  0.00D+00 EMaxC= 1.00D-01 BMatC= 2.06D-14 BMatP= 3.67D-13
 IDIUse=1 WtCom= 1.00D+00 WtEn= 0.00D+00
 Coeff-Com:  0.943D-06-0.463D-05-0.350D-04 0.142D-03-0.126D-04-0.190D-02
 Coeff-Com:  0.757D-02-0.119D-02-0.299D+00 0.129D+01
 Coeff:      0.943D-06-0.463D-05-0.350D-04 0.142D-03-0.126D-04-0.190D-02
 Coeff:      0.757D-02-0.119D-02-0.299D+00 0.129D+01
 Gap=     0.545 Goal=   None    Shift=    0.000
 RMSDP=7.69D-09 MaxDP=8.42D-08 DE=-7.25D-13 OVMax= 1.69D-07

 SCF Done:  E(RHF) =  -76.0302068153     A.U. after   10 cycles
            NFock= 10  Conv=0.77D-08     -V/T= 2.0023
 KE= 7.585367267280D+01 PE=-1.984242416556D+02 EE= 3.754490938162D+01
 Leave Link  502 at Wed Feb  8 14:49:37 2023, MaxMem=   754974720 cpu:               0.6 elap:               0.2
 (Enter /opt/cluster/programs/g16-c.01/g16/l801.exe)
 Windowed orbitals will be sorted by symmetry type.
 ExpMin= 2.97D-02 ExpMax= 1.17D+04 ExpMxC= 4.01D+02 IAcc=3 IRadAn=         5 AccDes= 0.00D+00
 HarFok:  IExCor=  205 AccDes= 0.00D+00 IRadAn=         5 IDoV=-2 UseB2=F ITyADJ=14
 ICtDFT= 12500011 ScaDFX=  1.000000  1.000000  1.000000  1.000000
 Largest valence mixing into a core orbital is  6.31D-05
 Largest core mixing into a valence orbital is  1.78D-05
 Range of M.O.s used for correlation:     2    41
 NBasis=    41 NAE=     5 NBE=     5 NFC=     1 NFV=     0
 NROrb=     40 NOA=     4 NOB=     4 NVA=    36 NVB=    36

 **** Warning!!: The largest alpha MO coefficient is  0.10856739D+02

 Leave Link  801 at Wed Feb  8 14:49:37 2023, MaxMem=   754974720 cpu:               0.3 elap:               0.1
 (Enter /opt/cluster/programs/g16-c.01/g16/l804.exe)
 Closed-shell transformation, MDV=   754974720 ITran=4 ISComp=2.
 Unit  1 TFree=         57024 TCopy=        242858.
 Semi-Direct transformation.
 ModeAB=           2 MOrb=             4 LenV=     754769661
 LASXX=        60334 LTotXX=       60334 LenRXX=       60334
 LTotAB=       65632 MaxLAS=      151360 LenRXY=      151360
 NonZer=      159520 LenScr=      785920 LnRSAI=           0
 LnScr1=           0 LExtra=           0 Total=       997614
 MaxDsk=          -1 SrtSym=           F ITran=            4
 DoSDTr:  NPSUse=  4
 JobTyp=0 Pass  1:  I=   1 to   4.
 (rs|ai) integrals will be sorted in core.
 Complete sort for first half transformation.
 First half transformation complete.
 Complete sort for second half transformation.
 Second half transformation complete.
 Spin components of T(2) and E(2):
     alpha-alpha T2 =       0.8086301030D-02 E2=     -0.2847665773D-01
     alpha-beta  T2 =       0.4576367221D-01 E2=     -0.1665198192D+00
     beta-beta   T2 =       0.8086301030D-02 E2=     -0.2847665773D-01
 ANorm=    0.1030502923D+01
 E2 =    -0.2234731347D+00 EUMP2 =    -0.76253679949912D+02
 Leave Link  804 at Wed Feb  8 14:49:38 2023, MaxMem=   754974720 cpu:               0.3 elap:               0.1
 (Enter /opt/cluster/programs/g16-c.01/g16/l913.exe)
 CIDS:  MDV=   754974720.
 Frozen-core window:  NFC=   1 NFV=   0.
 IFCWin=0 IBDFC=1 NFBD=     0     0 NFCmp=     0     0 NFFFC=     0     0
 Using DD3R+UMP44R for 1st iteration.
 Using DD4RQ for 2nd and later iterations.
 Keep R2 and R3 ints in memory in symmetry-blocked form, NReq=1234037.
 FoFCou: FMM=F IPFlag=           0 FMFlag=           0 FMFlg1=           0
         NFxFlg=           0 DoJE=F BraDBF=F KetDBF=F FulRan=T
         wScrn=  0.000000 ICntrl=       600 IOpCl=  0 I1Cent=           0 NGrid=           0
         NMat0=    1 NMatS0=    861 NMatT0=    0 NMatD0=    1 NMtDS0=    0 NMtDT0=    0
 Petite list used in FoFCou.
 CIDS: In Core Option IDoMem=           1.
 CCSD(T)
 =======
 Iterations=  50 Convergence= 0.100D-06
 Produce multiple copies of IABC intergrals
 Iteration Nr.   1
 **********************
 DD1Dir will call FoFMem   1 times, MxPair=        20
 NAB=    10 NAA=     0 NBB=     0.
 MP4(R+Q)=  0.26283448D-02
 Maximum subspace dimension=  5
 A-vector RMS=  5.6627813D-03 Max=  1.7795082D-02 conv= 1.00D-05.
 RLE energy=       -0.2246602635
 E3=       -0.39036654D-02        EUMP3=      -0.76257583615D+02
 E4(DQ)=   -0.16727477D-02        UMP4(DQ)=   -0.76259256363D+02
 E4(SDQ)=  -0.36043614D-02        UMP4(SDQ)=  -0.76261187977D+02
 VARIATIONAL ENERGIES WITH THE FIRST-ORDER WAVEFUNCTION:
 DE(Corr)= -0.22465403     E(Corr)=     -76.254860846    
 NORM(A)=   0.10313054D+01
 Iteration Nr.   2
 **********************
 DD1Dir will call FoFMem   1 times, MxPair=        20
 NAB=    10 NAA=     0 NBB=     0.
 A-vector RMS=  6.8678655D-04 Max=  3.1500044D-03 conv= 1.00D-05.
 RLE energy=       -0.2302831014
 DE(Corr)= -0.22963783     E(CORR)=     -76.259844646     Delta=-4.98D-03
 NORM(A)=   0.10337582D+01
 Iteration Nr.   3
 **********************
 DD1Dir will call FoFMem   1 times, MxPair=        20
 NAB=    10 NAA=     0 NBB=     0.
 A-vector RMS=  7.9203913D-04 Max=  3.0053949D-03 conv= 1.00D-05.
 RLE energy=       -0.2307009735
 DE(Corr)= -0.23022547     E(CORR)=     -76.260432290     Delta=-5.88D-04
 NORM(A)=   0.10343574D+01
 Iteration Nr.   4
 **********************
 DD1Dir will call FoFMem   1 times, MxPair=        20
 NAB=    10 NAA=     0 NBB=     0.
 A-vector RMS=  1.0649915D-04 Max=  3.7706616D-04 conv= 1.00D-05.
 RLE energy=       -0.2307455199
 DE(Corr)= -0.23071039     E(CORR)=     -76.260917205     Delta=-4.85D-04
 NORM(A)=   0.10344891D+01
 Iteration Nr.   5
 **********************
 DD1Dir will call FoFMem   1 times, MxPair=        20
 NAB=    10 NAA=     0 NBB=     0.
 A-vector RMS=  3.8768694D-05 Max=  1.6618274D-04 conv= 1.00D-05.
 RLE energy=       -0.2307531799
 DE(Corr)= -0.23074866     E(CORR)=     -76.260955479     Delta=-3.83D-05
 NORM(A)=   0.10345095D+01
 Iteration Nr.   6
 **********************
 DD1Dir will call FoFMem   1 times, MxPair=        20
 NAB=    10 NAA=     0 NBB=     0.
 A-vector RMS=  1.1168765D-05 Max=  4.5536457D-05 conv= 1.00D-05.
 RLE energy=       -0.2307501528
 DE(Corr)= -0.23075136     E(CORR)=     -76.260958173     Delta=-2.69D-06
 NORM(A)=   0.10345112D+01
 Iteration Nr.   7
 **********************
 DD1Dir will call FoFMem   1 times, MxPair=        20
 NAB=    10 NAA=     0 NBB=     0.
 A-vector RMS=  3.8483768D-06 Max=  1.2761020D-05 conv= 1.00D-05.
 RLE energy=       -0.2307506861
 DE(Corr)= -0.23075141     E(CORR)=     -76.260958224     Delta=-5.04D-08
 NORM(A)=   0.10345117D+01
 Iteration Nr.   8
 **********************
 DD1Dir will call FoFMem   1 times, MxPair=        20
 NAB=    10 NAA=     0 NBB=     0.
 A-vector RMS=  1.3317256D-06 Max=  5.9055192D-06 conv= 1.00D-05.
 RLE energy=       -0.2307509580
 DE(Corr)= -0.23075105     E(CORR)=     -76.260957864     Delta= 3.59D-07
 NORM(A)=   0.10345121D+01
 Iteration Nr.   9
 **********************
 DD1Dir will call FoFMem   1 times, MxPair=        20
 NAB=    10 NAA=     0 NBB=     0.
 A-vector RMS=  2.8790168D-07 Max=  1.1015430D-06 conv= 1.00D-05.
 RLE energy=       -0.2307511812
 DE(Corr)= -0.23075119     E(CORR)=     -76.260958006     Delta=-1.42D-07
 NORM(A)=   0.10345123D+01
 Iteration Nr.  10
 **********************
 DD1Dir will call FoFMem   1 times, MxPair=        20
 NAB=    10 NAA=     0 NBB=     0.
 A-vector RMS=  1.3654599D-07 Max=  4.5811818D-07 conv= 1.00D-05.
 RLE energy=       -0.2307512199
 DE(Corr)= -0.23075120     E(CORR)=     -76.260958018     Delta=-1.20D-08
 NORM(A)=   0.10345123D+01
 CI/CC converged in   10 iterations to DelEn=-1.20D-08 Conv= 1.00D-07 ErrA1= 1.37D-07 Conv= 1.00D-05
 Wavefunction amplitudes converged. E(Corr)=     -76.260958018    
 Largest amplitude= 3.56D-02
 IPart=  1 IA=    3   10.95% done.
 IPart=  4 IA=    5   21.27% done.
 IPart=  2 IA=    7   30.95% done.
 IPart=  2 IA=    9   40.00% done.
 IPart=  4 IA=   12   52.38% done.
 IPart=  1 IA=   15   63.33% done.
 IPart=  1 IA=   18   72.86% done.
 IPart=  1 IA=   21   80.95% done.
 IPart=  4 IA=   26   91.27% done.
 Time for triples=        0.40 seconds.
 T4(CCSD)= -0.60087992D-02
 T5(CCSD)=  0.43649968D-03
 CCSD(T)= -0.76266530318D+02
 Discarding MO integrals.
 Leave Link  913 at Wed Feb  8 14:49:38 2023, MaxMem=   754974720 cpu:               1.4 elap:               0.4
 (Enter /opt/cluster/programs/g16-c.01/g16/l601.exe)
 Copying SCF densities to generalized density rwf, IOpCl= 0 IROHF=0.

 **********************************************************************

            Population analysis using the SCF Density.

 **********************************************************************

 Orbital symmetries:
       Occupied  (A') (A') (A') (A') (A")
       Virtual   (A') (A') (A') (A") (A') (A') (A') (A') (A') (A")
                 (A") (A') (A') (A') (A') (A') (A") (A') (A") (A')
                 (A') (A") (A') (A") (A') (A") (A') (A') (A') (A')
                 (A') (A") (A') (A") (A') (A')
 The electronic state is 1-A'.
 Alpha  occ. eigenvalues --  -20.58818  -1.35585  -0.67251  -0.61193  -0.51191
 Alpha virt. eigenvalues --    0.03332   0.05922   0.17204   0.19971   0.22112
 Alpha virt. eigenvalues --    0.23699   0.27584   0.35416   0.37204   0.39273
 Alpha virt. eigenvalues --    0.40858   0.55074   0.63300   0.66006   0.76743
 Alpha virt. eigenvalues --    0.95551   1.11464   1.12234   1.14508   1.27136
 Alpha virt. eigenvalues --    1.42832   1.45524   1.60064   1.97437   2.02525
 Alpha virt. eigenvalues --    2.12209   2.13631   2.45793   2.60763   2.66838
 Alpha virt. eigenvalues --    3.06424   3.67641   3.68547   3.69292   3.96850
 Alpha virt. eigenvalues --    4.25838
          Condensed to atoms (all electrons):
               1          2          3
     1  O    7.712353   0.323144   0.305699
     2  H    0.323144   0.535103  -0.004398
     3  H    0.305699  -0.004398   0.503653
 Mulliken charges:
               1
     1  O   -0.341196
     2  H    0.146151
     3  H    0.195045
 Sum of Mulliken charges =   0.00000
 Mulliken charges with hydrogens summed into heavy atoms:
               1
     1  O    0.000000
 Electronic spatial extent (au):  <R**2>=             19.8522
 Charge=              0.0000 electrons
 Dipole moment (field-independent basis, Debye):
    X=              0.0318    Y=             -2.2666    Z=              0.0000  Tot=              2.2668
 Quadrupole moment (field-independent basis, Debye-Ang):
   XX=             -4.9626   YY=             -5.7640   ZZ=             -7.6237
   XY=              0.0925   XZ=              0.0000   YZ=              0.0000
 Traceless Quadrupole moment (field-independent basis, Debye-Ang):
   XX=              1.1542   YY=              0.3528   ZZ=             -1.5070
   XY=              0.0925   XZ=              0.0000   YZ=              0.0000
 Octapole moment (field-independent basis, Debye-Ang**2):
  XXX=              0.0866  YYY=             -1.5141  ZZZ=              0.0000  XYY=             -0.0837
  XXY=             -1.3369  XXZ=              0.0000  XZZ=              0.0313  YZZ=             -0.3076
  YYZ=              0.0000  XYZ=              0.0000
 Hexadecapole moment (field-independent basis, Debye-Ang**3):
 XXXX=             -6.6565 YYYY=             -7.5620 ZZZZ=             -6.7981 XXXY=             -0.0451
 XXXZ=              0.0000 YYYX=              0.0119 YYYZ=              0.0000 ZZZX=              0.0000
 ZZZY=              0.0000 XXYY=             -1.8559 XXZZ=             -2.4403 YYZZ=             -2.4957
 XXYZ=              0.0000 YYXZ=              0.0000 ZZXY=             -0.0356
 N-N= 8.995452785956D+00 E-N=-1.984242416487D+02  KE= 7.585367267280D+01
 Symmetry A'   KE= 7.139033735376D+01
 Symmetry A"   KE= 4.463335319042D+00
 Leave Link  601 at Wed Feb  8 14:49:38 2023, MaxMem=   754974720 cpu:               0.2 elap:               0.1
 (Enter /opt/cluster/programs/g16-c.01/g16/l9999.exe)
 Unable to Open any file for archive entry.
 1\1\GINC-NODE57\SP\RCCSD(T)-FC\Aug-CC-pVDZ\H2O1\BOITTIER\08-Feb-2023\0
 \\#P CCSD(T)/aug-cc-pVDZ scf(maxcycle=200)\\Gaussian input\\0,1\O,0,0.
 ,0.11751,0.\H,0,0.7578497316,-0.4701504329,0.\H,0,-0.5965053343,-0.696
 2850517,0.\\Version=ES64L-G16RevC.01\State=1-A'\HF=-76.0302068\MP2=-76
 .2536799\MP3=-76.2575836\MP4D=-76.2618847\MP4DQ=-76.2592564\MP4SDQ=-76
 .261188\CCSD=-76.260958\CCSD(T)=-76.2665303\RMSD=7.691e-09\PG=CS [SG(H
 2O1)]\\@
 The archive entry for this job was punched.


 HE THAT IS UNAWARE OF HIS IGNORANCE WILL BE MISLED BY HIS KNOWLEDGE.

                                        -- WHATLEY
 Job cpu time:       0 days  0 hours  0 minutes  5.4 seconds.
 Elapsed time:       0 days  0 hours  0 minutes  1.6 seconds.
 File lengths (MBytes):  RWF=     15 Int=      0 D2E=      0 Chk=      1 Scr=      1
 Normal termination of Gaussian 16 at Wed Feb  8 14:49:38 2023.
