 Entering Gaussian System, Link 0=/opt/cluster/programs/g16-c.01/g16/g16
 Input=/scratch/boittier/jobs/tmp.7261963/gaussian_25_water_wb97_ptz.com
 Output=/scratch/boittier/jobs/tmp.7261963/gaussian_25_water_wb97_ptz.out
 Initial command:
 /opt/cluster/programs/g16-c.01/g16/l1.exe "/scratch/boittier/jobs/tmp.7261963/Gau-104004.inp" -scrdir="/scratch/boittier/jobs/tmp.7261963/"
 Entering Link 1 = /opt/cluster/programs/g16-c.01/g16/l1.exe PID=    104005.
  
 Copyright (c) 1988-2019, Gaussian, Inc.  All Rights Reserved.
  
 This is part of the Gaussian(R) 16 program.  It is based on
 the Gaussian(R) 09 system (copyright 2009, Gaussian, Inc.),
 the Gaussian(R) 03 system (copyright 2003, Gaussian, Inc.),
 the Gaussian(R) 98 system (copyright 1998, Gaussian, Inc.),
 the Gaussian(R) 94 system (copyright 1995, Gaussian, Inc.),
 the Gaussian 92(TM) system (copyright 1992, Gaussian, Inc.),
 the Gaussian 90(TM) system (copyright 1990, Gaussian, Inc.),
 the Gaussian 88(TM) system (copyright 1988, Gaussian, Inc.),
 the Gaussian 86(TM) system (copyright 1986, Carnegie Mellon
 University), and the Gaussian 82(TM) system (copyright 1983,
 Carnegie Mellon University). Gaussian is a federally registered
 trademark of Gaussian, Inc.
  
 This software contains proprietary and confidential information,
 including trade secrets, belonging to Gaussian, Inc.
  
 This software is provided under written license and may be
 used, copied, transmitted, or stored only in accord with that
 written license.
  
 The following legend is applicable only to US Government
 contracts under FAR:
  
                    RESTRICTED RIGHTS LEGEND
  
 Use, reproduction and disclosure by the US Government is
 subject to restrictions as set forth in subparagraphs (a)
 and (c) of the Commercial Computer Software - Restricted
 Rights clause in FAR 52.227-19.
  
 Gaussian, Inc.
 340 Quinnipiac St., Bldg. 40, Wallingford CT 06492
  
  
 ---------------------------------------------------------------
 Warning -- This program may not be used in any manner that
 competes with the business of Gaussian, Inc. or will provide
 assistance to any competitor of Gaussian, Inc.  The licensee
 of this program is prohibited from giving any competitor of
 Gaussian, Inc. access to this program.  By using this program,
 the user acknowledges that Gaussian, Inc. is engaged in the
 business of creating and licensing software in the field of
 computational chemistry and represents and warrants to the
 licensee that it is not a competitor of Gaussian, Inc. and that
 it will not use this program in any manner prohibited above.
 ---------------------------------------------------------------
  

 Cite this work as:
 Gaussian 16, Revision C.01,
 M. J. Frisch, G. W. Trucks, H. B. Schlegel, G. E. Scuseria, 
 M. A. Robb, J. R. Cheeseman, G. Scalmani, V. Barone, 
 G. A. Petersson, H. Nakatsuji, X. Li, M. Caricato, A. V. Marenich, 
 J. Bloino, B. G. Janesko, R. Gomperts, B. Mennucci, H. P. Hratchian, 
 J. V. Ortiz, A. F. Izmaylov, J. L. Sonnenberg, D. Williams-Young, 
 F. Ding, F. Lipparini, F. Egidi, J. Goings, B. Peng, A. Petrone, 
 T. Henderson, D. Ranasinghe, V. G. Zakrzewski, J. Gao, N. Rega, 
 G. Zheng, W. Liang, M. Hada, M. Ehara, K. Toyota, R. Fukuda, 
 J. Hasegawa, M. Ishida, T. Nakajima, Y. Honda, O. Kitao, H. Nakai, 
 T. Vreven, K. Throssell, J. A. Montgomery, Jr., J. E. Peralta, 
 F. Ogliaro, M. J. Bearpark, J. J. Heyd, E. N. Brothers, K. N. Kudin, 
 V. N. Staroverov, T. A. Keith, R. Kobayashi, J. Normand, 
 K. Raghavachari, A. P. Rendell, J. C. Burant, S. S. Iyengar, 
 J. Tomasi, M. Cossi, J. M. Millam, M. Klene, C. Adamo, R. Cammi, 
 J. W. Ochterski, R. L. Martin, K. Morokuma, O. Farkas, 
 J. B. Foresman, and D. J. Fox, Gaussian, Inc., Wallingford CT, 2019.
 
 ******************************************
 Gaussian 16:  ES64L-G16RevC.01  3-Jul-2019
                 8-Feb-2023 
 ******************************************
 %nproc=4
 Will use up to    4 processors via shared memory.
 %mem=5760MB
 %chk=gaussian_25_water_wb97_ptz.chk
 ------------------------------------
 #P wB97XD/6-311g** scf(maxcycle=200)
 ------------------------------------
 1/38=1,172=1/1;
 2/12=2,17=6,18=5,40=1/2;
 3/5=4,6=6,7=101,11=2,25=1,30=1,74=-58/1,2,3;
 4//1;
 5/5=2,7=200,38=5/2;
 6/7=2,8=2,9=2,10=2,28=1/1;
 99/5=1,9=1/99;
 Leave Link    1 at Wed Feb  8 14:40:14 2023, MaxMem=   754974720 cpu:               0.2 elap:               0.1
 (Enter /opt/cluster/programs/g16-c.01/g16/l101.exe)
 --------------
 Gaussian input
 --------------
 Symbolic Z-matrix:
 Charge =  0 Multiplicity = 1
 O                     0.        0.11751   0. 
 H                     0.71834  -0.43951   0. 
 H                    -0.64469  -0.59246   0. 
 
 ITRead=  0  0  0
 MicOpt= -1 -1 -1
 NAtoms=      3 NQM=        3 NQMF=       0 NMMI=      0 NMMIF=      0
                NMic=       0 NMicF=      0.
                    Isotopes and Nuclear Properties:
 (Nuclear quadrupole moments (NQMom) in fm**2, nuclear magnetic moments (NMagM)
  in nuclear magnetons)

  Atom         1           2           3
 IAtWgt=          16           1           1
 AtmWgt=  15.9949146   1.0078250   1.0078250
 NucSpn=           0           1           1
 AtZEff=  -0.0000000  -0.0000000  -0.0000000
 NQMom=    0.0000000   0.0000000   0.0000000
 NMagM=    0.0000000   2.7928460   2.7928460
 AtZNuc=   8.0000000   1.0000000   1.0000000
 Leave Link  101 at Wed Feb  8 14:40:14 2023, MaxMem=   754974720 cpu:               0.8 elap:               0.4
 (Enter /opt/cluster/programs/g16-c.01/g16/l202.exe)
                          Input orientation:                          
 ---------------------------------------------------------------------
 Center     Atomic      Atomic             Coordinates (Angstroms)
 Number     Number       Type             X           Y           Z
 ---------------------------------------------------------------------
      1          8           0        0.000000    0.117510    0.000000
      2          1           0        0.718337   -0.439511    0.000000
      3          1           0       -0.644690   -0.592459    0.000000
 ---------------------------------------------------------------------
                    Distance matrix (angstroms):
                    1          2          3
     1  O    0.000000
     2  H    0.909000   0.000000
     3  H    0.959000   1.371581   0.000000
 Stoichiometry    H2O
 Framework group  CS[SG(H2O)]
 Deg. of freedom     3
 Full point group                 CS      NOp   2
 Largest Abelian subgroup         CS      NOp   2
 Largest concise Abelian subgroup C1      NOp   1
                         Standard orientation:                         
 ---------------------------------------------------------------------
 Center     Atomic      Atomic             Coordinates (Angstroms)
 Number     Number       Type             X           Y           Z
 ---------------------------------------------------------------------
      1          8           0        0.000000    0.126913    0.000000
      2          1           0        0.684803   -0.470855    0.000000
      3          1           0       -0.684803   -0.544448    0.000000
 ---------------------------------------------------------------------
 Rotational constants (GHZ):         709.3456877         528.4561861         302.8417751
 Leave Link  202 at Wed Feb  8 14:40:14 2023, MaxMem=   754974720 cpu:               0.1 elap:               0.1
 (Enter /opt/cluster/programs/g16-c.01/g16/l301.exe)
 Standard basis: 6-311G(d,p) (5D, 7F)
 Ernie: Thresh=  0.10000D-02 Tol=  0.10000D-05 Strict=F.
 There are    24 symmetry adapted cartesian basis functions of A'  symmetry.
 There are     7 symmetry adapted cartesian basis functions of A"  symmetry.
 There are    23 symmetry adapted basis functions of A'  symmetry.
 There are     7 symmetry adapted basis functions of A"  symmetry.
    30 basis functions,    48 primitive gaussians,    31 cartesian basis functions
     5 alpha electrons        5 beta electrons
       nuclear repulsion energy         9.4574489906 Hartrees.
 IExCor= 4639 DFT=T Ex+Corr=wB97XD ExCW=0 ScaHFX=  1.000000
 ScaDFX=  1.000000  1.000000  1.000000  1.000000 ScalE2=  1.000000  1.000000
 IRadAn=      5 IRanWt=     -1 IRanGd=            0 ICorTp=0 IEmpDi=121
 HFx  wShort=  0.000000 wLong=  0.200000 cFull=  0.222036 cShort=  0.000000 cLong=  0.777964
 DFx  wShort=  0.000000 wLong=  0.200000 cFull=  0.000000 cShort=  0.000000 cLong=  1.000000
 NAtoms=    3 NActive=    3 NUniq=    3 SFac= 1.00D+00 NAtFMM=   60 NAOKFM=F Big=F
 Integral buffers will be    131072 words long.
 Raffenetti 2 integral format.
 Two-electron integral symmetry is turned on.
 R6Disp:  Grimme-D2 Dispersion energy=       -0.0000152223 Hartrees.
 Nuclear repulsion after empirical dispersion term =        9.4574337682 Hartrees.
 Leave Link  301 at Wed Feb  8 14:40:14 2023, MaxMem=   754974720 cpu:               0.3 elap:               0.1
 (Enter /opt/cluster/programs/g16-c.01/g16/l302.exe)
 NPDir=0 NMtPBC=     1 NCelOv=     1 NCel=       1 NClECP=     1 NCelD=      1
         NCelK=      1 NCelE2=     1 NClLst=     1 CellRange=     0.0.
 One-electron integrals computed using PRISM.
 One-electron integral symmetry used in STVInt
 NBasis=    30 RedAO= T EigKep=  1.59D-02  NBF=    23     7
 NBsUse=    30 1.00D-06 EigRej= -1.00D+00 NBFU=    23     7
 Precomputing XC quadrature grid using
 IXCGrd= 4 IRadAn=           5 IRanWt=          -1 IRanGd=           0 AccXCQ= 0.00D+00.
 Generated NRdTot=       0 NPtTot=           0 NUsed=           0 NTot=          32
 NSgBfM=    31    31    31    31    31 MxSgAt=     3 MxSgA2=     3.
 Leave Link  302 at Wed Feb  8 14:40:14 2023, MaxMem=   754974720 cpu:               0.5 elap:               0.2
 (Enter /opt/cluster/programs/g16-c.01/g16/l303.exe)
 DipDrv:  MaxL=1.
 Leave Link  303 at Wed Feb  8 14:40:15 2023, MaxMem=   754974720 cpu:               0.6 elap:               0.3
 (Enter /opt/cluster/programs/g16-c.01/g16/l401.exe)
 ExpMin= 1.03D-01 ExpMax= 8.59D+03 ExpMxC= 1.30D+03 IAcc=3 IRadAn=         5 AccDes= 0.00D+00
 Harris functional with IExCor= 4639 and IRadAn=       5 diagonalized for initial guess.
 HarFok:  IExCor= 4639 AccDes= 0.00D+00 IRadAn=         5 IDoV= 1 UseB2=F ITyADJ=14
 ICtDFT=  3500011 ScaDFX=  1.000000  1.000000  1.000000  1.000000
 FoFCou: FMM=F IPFlag=           0 FMFlag=      100000 FMFlg1=           0
         NFxFlg=           0 DoJE=T BraDBF=F KetDBF=T FulRan=T
         wScrn=  0.000000 ICntrl=       500 IOpCl=  0 I1Cent=   200000004 NGrid=           0
         NMat0=    1 NMatS0=      1 NMatT0=    0 NMatD0=    1 NMtDS0=    0 NMtDT0=    0
 Petite list used in FoFCou.
 Harris En= -73.6019373750389    
 JPrj=0 DoOrth=F DoCkMO=F.
 Initial guess orbital symmetries:
       Occupied  (A') (A') (A') (A') (A")
       Virtual   (A') (A') (A') (A') (A') (A") (A') (A') (A') (A")
                 (A") (A') (A') (A') (A') (A') (A") (A") (A') (A')
                 (A') (A") (A') (A') (A')
 The electronic state of the initial guess is 1-A'.
 Leave Link  401 at Wed Feb  8 14:40:15 2023, MaxMem=   754974720 cpu:               0.9 elap:               0.2
 (Enter /opt/cluster/programs/g16-c.01/g16/l502.exe)
 Keep R1 ints in memory in symmetry-blocked form, NReq=3688183.
 FoFCou: FMM=F IPFlag=           0 FMFlag=           0 FMFlg1=           0
         NFxFlg=           0 DoJE=F BraDBF=F KetDBF=F FulRan=T
         wScrn=  0.000000 ICntrl=       600 IOpCl=  0 I1Cent=           0 NGrid=           0
         NMat0=    1 NMatS0=    465 NMatT0=    0 NMatD0=    1 NMtDS0=    0 NMtDT0=    0
 Petite list used in FoFCou.
 Closed shell SCF:
 Using DIIS extrapolation, IDIIS=  1040.
 NGot=   754974720 LenX=   754911268 LenY=   754909866
 Requested convergence on RMS density matrix=1.00D-08 within 200 cycles.
 Requested convergence on MAX density matrix=1.00D-06.
 Requested convergence on             energy=1.00D-06.
 No special actions if energy rises.
 Integral accuracy reduced to 1.0D-05 until final iterations.

 Cycle   1  Pass 0  IDiag  1:
 E= -76.4078077378575    
 DIIS: error= 7.46D-02 at cycle   1 NSaved=   1.
 NSaved= 1 IEnMin= 1 EnMin= -76.4078077378575     IErMin= 1 ErrMin= 7.46D-02
 ErrMax= 7.46D-02  0.00D+00 EMaxC= 1.00D-01 BMatC= 1.28D-01 BMatP= 1.28D-01
 IDIUse=3 WtCom= 2.54D-01 WtEn= 7.46D-01
 Coeff-Com:  0.100D+01
 Coeff-En:   0.100D+01
 Coeff:      0.100D+01
 Gap=     0.495 Goal=   None    Shift=    0.000
 GapD=    0.495 DampG=2.000 DampE=0.500 DampFc=1.0000 IDamp=-1.
 RMSDP=2.71D-03 MaxDP=2.35D-02              OVMax= 3.73D-02

 Cycle   2  Pass 0  IDiag  1:
 E= -76.4171240603065     Delta-E=       -0.009316322449 Rises=F Damp=F
 DIIS: error= 7.69D-03 at cycle   2 NSaved=   2.
 NSaved= 2 IEnMin= 2 EnMin= -76.4171240603065     IErMin= 2 ErrMin= 7.69D-03
 ErrMax= 7.69D-03  0.00D+00 EMaxC= 1.00D-01 BMatC= 1.20D-03 BMatP= 1.28D-01
 IDIUse=3 WtCom= 9.23D-01 WtEn= 7.69D-02
 Coeff-Com:  0.441D-01 0.956D+00
 Coeff-En:   0.000D+00 0.100D+01
 Coeff:      0.407D-01 0.959D+00
 Gap=     0.522 Goal=   None    Shift=    0.000
 RMSDP=1.01D-03 MaxDP=1.41D-02 DE=-9.32D-03 OVMax= 1.24D-02

 Cycle   3  Pass 0  IDiag  1:
 E= -76.4173465433473     Delta-E=       -0.000222483041 Rises=F Damp=F
 DIIS: error= 6.30D-03 at cycle   3 NSaved=   3.
 NSaved= 3 IEnMin= 3 EnMin= -76.4173465433473     IErMin= 3 ErrMin= 6.30D-03
 ErrMax= 6.30D-03  0.00D+00 EMaxC= 1.00D-01 BMatC= 7.98D-04 BMatP= 1.20D-03
 IDIUse=3 WtCom= 9.37D-01 WtEn= 6.30D-02
 Coeff-Com:  0.211D-01 0.459D+00 0.520D+00
 Coeff-En:   0.000D+00 0.393D+00 0.607D+00
 Coeff:      0.198D-01 0.455D+00 0.525D+00
 Gap=     0.511 Goal=   None    Shift=    0.000
 RMSDP=4.62D-04 MaxDP=6.17D-03 DE=-2.22D-04 OVMax= 6.25D-03

 Cycle   4  Pass 0  IDiag  1:
 E= -76.4178243925301     Delta-E=       -0.000477849183 Rises=F Damp=F
 DIIS: error= 6.19D-04 at cycle   4 NSaved=   4.
 NSaved= 4 IEnMin= 4 EnMin= -76.4178243925301     IErMin= 4 ErrMin= 6.19D-04
 ErrMax= 6.19D-04  0.00D+00 EMaxC= 1.00D-01 BMatC= 6.67D-06 BMatP= 7.98D-04
 IDIUse=3 WtCom= 9.94D-01 WtEn= 6.19D-03
 Coeff-Com:  0.189D-02 0.547D-01 0.116D+00 0.828D+00
 Coeff-En:   0.000D+00 0.000D+00 0.000D+00 0.100D+01
 Coeff:      0.188D-02 0.543D-01 0.115D+00 0.829D+00
 Gap=     0.512 Goal=   None    Shift=    0.000
 RMSDP=5.18D-05 MaxDP=6.85D-04 DE=-4.78D-04 OVMax= 5.26D-04

 Cycle   5  Pass 0  IDiag  1:
 E= -76.4178285952185     Delta-E=       -0.000004202688 Rises=F Damp=F
 DIIS: error= 5.31D-05 at cycle   5 NSaved=   5.
 NSaved= 5 IEnMin= 5 EnMin= -76.4178285952185     IErMin= 5 ErrMin= 5.31D-05
 ErrMax= 5.31D-05  0.00D+00 EMaxC= 1.00D-01 BMatC= 7.94D-08 BMatP= 6.67D-06
 IDIUse=1 WtCom= 1.00D+00 WtEn= 0.00D+00
 Coeff-Com: -0.736D-03-0.190D-01-0.208D-01-0.168D-01 0.106D+01
 Coeff:     -0.736D-03-0.190D-01-0.208D-01-0.168D-01 0.106D+01
 Gap=     0.512 Goal=   None    Shift=    0.000
 RMSDP=1.45D-05 MaxDP=1.38D-04 DE=-4.20D-06 OVMax= 2.75D-04

 Cycle   6  Pass 0  IDiag  1:
 E= -76.4178287405471     Delta-E=       -0.000000145329 Rises=F Damp=F
 DIIS: error= 1.15D-05 at cycle   6 NSaved=   6.
 NSaved= 6 IEnMin= 6 EnMin= -76.4178287405471     IErMin= 6 ErrMin= 1.15D-05
 ErrMax= 1.15D-05  0.00D+00 EMaxC= 1.00D-01 BMatC= 3.15D-09 BMatP= 7.94D-08
 IDIUse=1 WtCom= 1.00D+00 WtEn= 0.00D+00
 Coeff-Com:  0.125D-03 0.279D-02 0.376D-02-0.111D-01-0.218D+00 0.122D+01
 Coeff:      0.125D-03 0.279D-02 0.376D-02-0.111D-01-0.218D+00 0.122D+01
 Gap=     0.512 Goal=   None    Shift=    0.000
 RMSDP=3.90D-06 MaxDP=4.58D-05 DE=-1.45D-07 OVMax= 7.11D-05

 Initial convergence to 1.0D-05 achieved.  Increase integral accuracy.
 Cycle   7  Pass 1  IDiag  1:
 E= -76.4178248261316     Delta-E=        0.000003914416 Rises=F Damp=F
 DIIS: error= 1.37D-05 at cycle   1 NSaved=   1.
 NSaved= 1 IEnMin= 1 EnMin= -76.4178248261316     IErMin= 1 ErrMin= 1.37D-05
 ErrMax= 1.37D-05  0.00D+00 EMaxC= 1.00D-01 BMatC= 7.19D-09 BMatP= 7.19D-09
 IDIUse=1 WtCom= 1.00D+00 WtEn= 0.00D+00
 Coeff-Com:  0.100D+01
 Coeff:      0.100D+01
 Gap=     0.512 Goal=   None    Shift=    0.000
 RMSDP=3.90D-06 MaxDP=4.58D-05 DE= 3.91D-06 OVMax= 2.13D-05

 Cycle   8  Pass 1  IDiag  1:
 E= -76.4178248308896     Delta-E=       -0.000000004758 Rises=F Damp=F
 DIIS: error= 3.71D-06 at cycle   2 NSaved=   2.
 NSaved= 2 IEnMin= 2 EnMin= -76.4178248308896     IErMin= 2 ErrMin= 3.71D-06
 ErrMax= 3.71D-06  0.00D+00 EMaxC= 1.00D-01 BMatC= 2.89D-10 BMatP= 7.19D-09
 IDIUse=1 WtCom= 1.00D+00 WtEn= 0.00D+00
 Coeff-Com: -0.710D-02 0.101D+01
 Coeff:     -0.710D-02 0.101D+01
 Gap=     0.512 Goal=   None    Shift=    0.000
 RMSDP=6.11D-07 MaxDP=6.04D-06 DE=-4.76D-09 OVMax= 7.92D-06

 Cycle   9  Pass 1  IDiag  1:
 E= -76.4178248309415     Delta-E=       -0.000000000052 Rises=F Damp=F
 DIIS: error= 3.47D-06 at cycle   3 NSaved=   3.
 NSaved= 3 IEnMin= 3 EnMin= -76.4178248309415     IErMin= 3 ErrMin= 3.47D-06
 ErrMax= 3.47D-06  0.00D+00 EMaxC= 1.00D-01 BMatC= 2.77D-10 BMatP= 2.89D-10
 IDIUse=1 WtCom= 1.00D+00 WtEn= 0.00D+00
 Coeff-Com: -0.402D-01 0.518D+00 0.522D+00
 Coeff:     -0.402D-01 0.518D+00 0.522D+00
 Gap=     0.512 Goal=   None    Shift=    0.000
 RMSDP=2.56D-07 MaxDP=3.63D-06 DE=-5.19D-11 OVMax= 3.38D-06

 Cycle  10  Pass 1  IDiag  1:
 E= -76.4178248311089     Delta-E=       -0.000000000167 Rises=F Damp=F
 DIIS: error= 1.19D-07 at cycle   4 NSaved=   4.
 NSaved= 4 IEnMin= 4 EnMin= -76.4178248311089     IErMin= 4 ErrMin= 1.19D-07
 ErrMax= 1.19D-07  0.00D+00 EMaxC= 1.00D-01 BMatC= 3.43D-13 BMatP= 2.77D-10
 IDIUse=1 WtCom= 1.00D+00 WtEn= 0.00D+00
 Coeff-Com: -0.241D-03-0.281D-01-0.255D-01 0.105D+01
 Coeff:     -0.241D-03-0.281D-01-0.255D-01 0.105D+01
 Gap=     0.512 Goal=   None    Shift=    0.000
 RMSDP=3.91D-08 MaxDP=4.65D-07 DE=-1.67D-10 OVMax= 6.37D-07

 Cycle  11  Pass 1  IDiag  1:
 E= -76.4178248311097     Delta-E=       -0.000000000001 Rises=F Damp=F
 DIIS: error= 3.83D-08 at cycle   5 NSaved=   5.
 NSaved= 5 IEnMin= 5 EnMin= -76.4178248311097     IErMin= 5 ErrMin= 3.83D-08
 ErrMax= 3.83D-08  0.00D+00 EMaxC= 1.00D-01 BMatC= 2.48D-14 BMatP= 3.43D-13
 IDIUse=1 WtCom= 1.00D+00 WtEn= 0.00D+00
 Coeff-Com:  0.820D-03-0.110D-01-0.644D-02-0.113D-01 0.103D+01
 Coeff:      0.820D-03-0.110D-01-0.644D-02-0.113D-01 0.103D+01
 Gap=     0.512 Goal=   None    Shift=    0.000
 RMSDP=9.44D-09 MaxDP=9.03D-08 DE=-7.67D-13 OVMax= 1.82D-07

 SCF Done:  E(RwB97XD) =  -76.4178248311     A.U. after   11 cycles
            NFock= 11  Conv=0.94D-08     -V/T= 2.0001
 KE= 7.641231794858D+01 PE=-2.000784319228D+02 EE= 3.779085537485D+01
 Leave Link  502 at Wed Feb  8 14:40:20 2023, MaxMem=   754974720 cpu:               9.3 elap:               4.7
 (Enter /opt/cluster/programs/g16-c.01/g16/l601.exe)
 Copying SCF densities to generalized density rwf, IOpCl= 0 IROHF=0.

 **********************************************************************

            Population analysis using the SCF Density.

 **********************************************************************

 Orbital symmetries:
       Occupied  (A') (A') (A') (A') (A")
       Virtual   (A') (A') (A') (A') (A") (A') (A') (A') (A') (A")
                 (A") (A') (A') (A') (A') (A') (A") (A") (A') (A')
                 (A') (A") (A') (A') (A')
 The electronic state is 1-A'.
 Alpha  occ. eigenvalues --  -19.22633  -1.12372  -0.60021  -0.48529  -0.39127
 Alpha virt. eigenvalues --    0.12033   0.19799   0.46061   0.54853   0.85316
 Alpha virt. eigenvalues --    0.85344   0.96077   1.16266   1.19520   1.39329
 Alpha virt. eigenvalues --    1.49280   1.83876   2.00392   2.20503   2.39748
 Alpha virt. eigenvalues --    2.60975   3.22319   3.28445   3.42609   3.66536
 Alpha virt. eigenvalues --    4.00077   4.88382   5.39222   5.72845  50.01471
          Condensed to atoms (all electrons):
               1          2          3
     1  O    7.829902   0.314113   0.305338
     2  H    0.314113   0.493801  -0.033753
     3  H    0.305338  -0.033753   0.504900
 Mulliken charges:
               1
     1  O   -0.449353
     2  H    0.225838
     3  H    0.223514
 Sum of Mulliken charges =  -0.00000
 Mulliken charges with hydrogens summed into heavy atoms:
               1
     1  O   -0.000000
 Electronic spatial extent (au):  <R**2>=             18.7054
 Charge=              0.0000 electrons
 Dipole moment (field-independent basis, Debye):
    X=              0.0458    Y=             -2.2028    Z=              0.0000  Tot=              2.2033
 Quadrupole moment (field-independent basis, Debye-Ang):
   XX=             -4.6851   YY=             -5.7549   ZZ=             -7.1068
   XY=              0.0931   XZ=              0.0000   YZ=              0.0000
 Traceless Quadrupole moment (field-independent basis, Debye-Ang):
   XX=              1.1639   YY=              0.0940   ZZ=             -1.2579
   XY=              0.0931   XZ=              0.0000   YZ=              0.0000
 Octapole moment (field-independent basis, Debye-Ang**2):
  XXX=              0.1019  YYY=             -1.4341  ZZZ=              0.0000  XYY=             -0.0584
  XXY=             -1.1331  XXZ=              0.0000  XZZ=              0.0355  YZZ=             -0.3747
  YYZ=              0.0000  XYZ=              0.0000
 Hexadecapole moment (field-independent basis, Debye-Ang**3):
 XXXX=             -5.8850 YYYY=             -6.1960 ZZZZ=             -5.1558 XXXY=             -0.0511
 XXXZ=              0.0000 YYYX=             -0.0109 YYYZ=              0.0000 ZZZX=              0.0000
 ZZZY=              0.0000 XXYY=             -1.6402 XXZZ=             -2.0213 YYZZ=             -1.9669
 XXYZ=              0.0000 YYXZ=              0.0000 ZZXY=             -0.0350
 N-N= 9.457433768224D+00 E-N=-2.000784320482D+02  KE= 7.641231794858D+01
 Symmetry A'   KE= 7.176969864303D+01
 Symmetry A"   KE= 4.642619305545D+00
 No NMR shielding tensors so no spin-rotation constants.
 Leave Link  601 at Wed Feb  8 14:40:20 2023, MaxMem=   754974720 cpu:               0.8 elap:               0.3
 (Enter /opt/cluster/programs/g16-c.01/g16/l9999.exe)
 Unable to Open any file for archive entry.
 1\1\GINC-NODE64\SP\RwB97XD\6-311G(d,p)\H2O1\BOITTIER\08-Feb-2023\0\\#P
  wB97XD/6-311g** scf(maxcycle=200)\\Gaussian input\\0,1\O,0,0.,0.11751
 ,0.\H,0,0.7183372325,-0.4395112028,0.\H,0,-0.6446897571,-0.5924590958,
 0.\\Version=ES64L-G16RevC.01\State=1-A'\HF=-76.4178248\RMSD=9.445e-09\
 Dipole=0.0682744,-0.8641335,0.\Quadrupole=0.8546054,0.0806194,-0.93522
 48,0.1148595,0.,0.\PG=CS [SG(H2O1)]\\@
 The archive entry for this job was punched.


          EVOLUTION
 IN THE BEGINNING GOD MADE MAN.
 HE WORKED THE DIRT WITH HIS HANDS.
 THEN GOD DECIDED TO GIVE MAN SCIENCE,
 MAN SHOULD BE USEFUL (LIKE AN APPLIANCE.)
 BUT SOON MAN'S KNOWLEDGE GREW TOO GREAT,
 TO THE HEADING SCIENCE HE COULDN'T RELATE
 SO GOD SAID "LETS HAVE DIFFERENT FIELDS,
 WE'LL DIVIDE THEM UP, SEE WHAT IT YIELDS."
 ENTER PHYSICS, CHEMISTRY, BIO
 THEY SPRANG UP AROUND THE NILE.
 BUT CHEMISTRY SURPASSED THE REST
 FAR AND AWAY IT WAS THE BEST.
 EXPERIMENT WAS GOD'S DECREE
 EXPERIMENT DID CHEMISTS WITH LOTS OF GLEE
 BUT SOON THEIR TESTS BEGAN TO BOG,
 THEY FOUND THEMSELVES DEEP IN A FOG.
 "GIVE US SOME HELP" THEY CRIED TO GOD.
 GOD LOOKED AROUND, THEN GAVE THE NOD.
 ENTER EINSTEIN, HEISENBERG, BOHR,
 REACTION PATHS WERE CLEAR ONCE MORE.
 WITH THEORISTS GOD SEND DIRECTION
 AND THEN HE STOPPED, HE'D MADE PERFECTION.
          -- THOMAS A. HOLME, 1981
 Job cpu time:       0 days  0 hours  0 minutes 13.8 seconds.
 Elapsed time:       0 days  0 hours  0 minutes  6.4 seconds.
 File lengths (MBytes):  RWF=      6 Int=      0 D2E=      0 Chk=      1 Scr=      1
 Normal termination of Gaussian 16 at Wed Feb  8 14:40:20 2023.
