 Entering Gaussian System, Link 0=/opt/cluster/programs/g16-c.01/g16/g16
 Input=/scratch/boittier/jobs/tmp.7425809/gaussian_61_water_pbe0_adz.com
 Output=/scratch/boittier/jobs/tmp.7425809/gaussian_61_water_pbe0_adz.out
 Initial command:
 /opt/cluster/programs/g16-c.01/g16/l1.exe "/scratch/boittier/jobs/tmp.7425809/Gau-6027.inp" -scrdir="/scratch/boittier/jobs/tmp.7425809/"
 Entering Link 1 = /opt/cluster/programs/g16-c.01/g16/l1.exe PID=      6031.
  
 Copyright (c) 1988-2019, Gaussian, Inc.  All Rights Reserved.
  
 This is part of the Gaussian(R) 16 program.  It is based on
 the Gaussian(R) 09 system (copyright 2009, Gaussian, Inc.),
 the Gaussian(R) 03 system (copyright 2003, Gaussian, Inc.),
 the Gaussian(R) 98 system (copyright 1998, Gaussian, Inc.),
 the Gaussian(R) 94 system (copyright 1995, Gaussian, Inc.),
 the Gaussian 92(TM) system (copyright 1992, Gaussian, Inc.),
 the Gaussian 90(TM) system (copyright 1990, Gaussian, Inc.),
 the Gaussian 88(TM) system (copyright 1988, Gaussian, Inc.),
 the Gaussian 86(TM) system (copyright 1986, Carnegie Mellon
 University), and the Gaussian 82(TM) system (copyright 1983,
 Carnegie Mellon University). Gaussian is a federally registered
 trademark of Gaussian, Inc.
  
 This software contains proprietary and confidential information,
 including trade secrets, belonging to Gaussian, Inc.
  
 This software is provided under written license and may be
 used, copied, transmitted, or stored only in accord with that
 written license.
  
 The following legend is applicable only to US Government
 contracts under FAR:
  
                    RESTRICTED RIGHTS LEGEND
  
 Use, reproduction and disclosure by the US Government is
 subject to restrictions as set forth in subparagraphs (a)
 and (c) of the Commercial Computer Software - Restricted
 Rights clause in FAR 52.227-19.
  
 Gaussian, Inc.
 340 Quinnipiac St., Bldg. 40, Wallingford CT 06492
  
  
 ---------------------------------------------------------------
 Warning -- This program may not be used in any manner that
 competes with the business of Gaussian, Inc. or will provide
 assistance to any competitor of Gaussian, Inc.  The licensee
 of this program is prohibited from giving any competitor of
 Gaussian, Inc. access to this program.  By using this program,
 the user acknowledges that Gaussian, Inc. is engaged in the
 business of creating and licensing software in the field of
 computational chemistry and represents and warrants to the
 licensee that it is not a competitor of Gaussian, Inc. and that
 it will not use this program in any manner prohibited above.
 ---------------------------------------------------------------
  

 Cite this work as:
 Gaussian 16, Revision C.01,
 M. J. Frisch, G. W. Trucks, H. B. Schlegel, G. E. Scuseria, 
 M. A. Robb, J. R. Cheeseman, G. Scalmani, V. Barone, 
 G. A. Petersson, H. Nakatsuji, X. Li, M. Caricato, A. V. Marenich, 
 J. Bloino, B. G. Janesko, R. Gomperts, B. Mennucci, H. P. Hratchian, 
 J. V. Ortiz, A. F. Izmaylov, J. L. Sonnenberg, D. Williams-Young, 
 F. Ding, F. Lipparini, F. Egidi, J. Goings, B. Peng, A. Petrone, 
 T. Henderson, D. Ranasinghe, V. G. Zakrzewski, J. Gao, N. Rega, 
 G. Zheng, W. Liang, M. Hada, M. Ehara, K. Toyota, R. Fukuda, 
 J. Hasegawa, M. Ishida, T. Nakajima, Y. Honda, O. Kitao, H. Nakai, 
 T. Vreven, K. Throssell, J. A. Montgomery, Jr., J. E. Peralta, 
 F. Ogliaro, M. J. Bearpark, J. J. Heyd, E. N. Brothers, K. N. Kudin, 
 V. N. Staroverov, T. A. Keith, R. Kobayashi, J. Normand, 
 K. Raghavachari, A. P. Rendell, J. C. Burant, S. S. Iyengar, 
 J. Tomasi, M. Cossi, J. M. Millam, M. Klene, C. Adamo, R. Cammi, 
 J. W. Ochterski, R. L. Martin, K. Morokuma, O. Farkas, 
 J. B. Foresman, and D. J. Fox, Gaussian, Inc., Wallingford CT, 2019.
 
 ******************************************
 Gaussian 16:  ES64L-G16RevC.01  3-Jul-2019
                20-Mar-2023 
 ******************************************
 %nproc=4
 Will use up to    4 processors via shared memory.
 %mem=5760MB
 %chk=gaussian_61_water_pbe0_adz.chk
 ----------------------------------------
 #P PBE1PBE/aug-cc-pVDZ scf(maxcycle=200)
 ----------------------------------------
 1/38=1,172=1/1;
 2/12=2,17=6,18=5,40=1/2;
 3/5=16,7=10,11=2,25=1,30=1,74=-13/1,2,3;
 4//1;
 5/5=2,7=200,38=5/2;
 6/7=2,8=2,9=2,10=2,28=1/1;
 99/5=1,9=1/99;
 Leave Link    1 at Mon Mar 20 17:58:38 2023, MaxMem=   754974720 cpu:               0.1 elap:               0.1
 (Enter /opt/cluster/programs/g16-c.01/g16/l101.exe)
 --------------
 Gaussian input
 --------------
 Symbolic Z-matrix:
 Charge =  0 Multiplicity = 1
 O                     0.        0.11751   0. 
 H                     0.75785  -0.47015   0. 
 H                    -0.51147  -0.63394   0. 
 
 ITRead=  0  0  0
 MicOpt= -1 -1 -1
 NAtoms=      3 NQM=        3 NQMF=       0 NMMI=      0 NMMIF=      0
                NMic=       0 NMicF=      0.
                    Isotopes and Nuclear Properties:
 (Nuclear quadrupole moments (NQMom) in fm**2, nuclear magnetic moments (NMagM)
  in nuclear magnetons)

  Atom         1           2           3
 IAtWgt=          16           1           1
 AtmWgt=  15.9949146   1.0078250   1.0078250
 NucSpn=           0           1           1
 AtZEff=  -0.0000000  -0.0000000  -0.0000000
 NQMom=    0.0000000   0.0000000   0.0000000
 NMagM=    0.0000000   2.7928460   2.7928460
 AtZNuc=   8.0000000   1.0000000   1.0000000
 Leave Link  101 at Mon Mar 20 17:58:38 2023, MaxMem=   754974720 cpu:               0.6 elap:               0.2
 (Enter /opt/cluster/programs/g16-c.01/g16/l202.exe)
                          Input orientation:                          
 ---------------------------------------------------------------------
 Center     Atomic      Atomic             Coordinates (Angstroms)
 Number     Number       Type             X           Y           Z
 ---------------------------------------------------------------------
      1          8           0        0.000000    0.117510    0.000000
      2          1           0        0.757850   -0.470150    0.000000
      3          1           0       -0.511473   -0.633939    0.000000
 ---------------------------------------------------------------------
                    Distance matrix (angstroms):
                    1          2          3
     1  O    0.000000
     2  H    0.959000   0.000000
     3  H    0.909000   1.279847   0.000000
 Stoichiometry    H2O
 Framework group  CS[SG(H2O)]
 Deg. of freedom     3
 Full point group                 CS      NOp   2
 Largest Abelian subgroup         CS      NOp   2
 Largest concise Abelian subgroup C1      NOp   1
                         Standard orientation:                         
 ---------------------------------------------------------------------
 Center     Atomic      Atomic             Coordinates (Angstroms)
 Number     Number       Type             X           Y           Z
 ---------------------------------------------------------------------
      1          8           0        0.000000    0.136159   -0.000000
      2          1           0        0.639004   -0.578933    0.000000
      3          1           0       -0.639004   -0.510336   -0.000000
 ---------------------------------------------------------------------
 Rotational constants (GHZ):         645.3309111         579.6026551         305.3516695
 Leave Link  202 at Mon Mar 20 17:58:39 2023, MaxMem=   754974720 cpu:               0.2 elap:               0.1
 (Enter /opt/cluster/programs/g16-c.01/g16/l301.exe)
 Standard basis: Aug-CC-pVDZ (5D, 7F)
 Ernie: Thresh=  0.10000D-02 Tol=  0.10000D-05 Strict=F.
 Ernie:  2 primitive shells out of 39 were deleted.
 There are    32 symmetry adapted cartesian basis functions of A'  symmetry.
 There are    11 symmetry adapted cartesian basis functions of A"  symmetry.
 There are    30 symmetry adapted basis functions of A'  symmetry.
 There are    11 symmetry adapted basis functions of A"  symmetry.
    41 basis functions,    65 primitive gaussians,    43 cartesian basis functions
     5 alpha electrons        5 beta electrons
       nuclear repulsion energy         9.4851028225 Hartrees.
 IExCor= 1009 DFT=T Ex+Corr=PBE1PBE ExCW=0 ScaHFX=  0.250000
 ScaDFX=  0.750000  0.750000  1.000000  1.000000 ScalE2=  1.000000  1.000000
 IRadAn=      5 IRanWt=     -1 IRanGd=            0 ICorTp=0 IEmpDi=  4
 NAtoms=    3 NActive=    3 NUniq=    3 SFac= 1.00D+00 NAtFMM=   60 NAOKFM=F Big=F
 Integral buffers will be    131072 words long.
 Raffenetti 2 integral format.
 Two-electron integral symmetry is turned on.
 Leave Link  301 at Mon Mar 20 17:58:39 2023, MaxMem=   754974720 cpu:               0.2 elap:               0.1
 (Enter /opt/cluster/programs/g16-c.01/g16/l302.exe)
 NPDir=0 NMtPBC=     1 NCelOv=     1 NCel=       1 NClECP=     1 NCelD=      1
         NCelK=      1 NCelE2=     1 NClLst=     1 CellRange=     0.0.
 One-electron integrals computed using PRISM.
 One-electron integral symmetry used in STVInt
 NBasis=    41 RedAO= T EigKep=  1.53D-03  NBF=    30    11
 NBsUse=    41 1.00D-06 EigRej= -1.00D+00 NBFU=    30    11
 Precomputing XC quadrature grid using
 IXCGrd= 4 IRadAn=           5 IRanWt=          -1 IRanGd=           0 AccXCQ= 0.00D+00.
 Generated NRdTot=       0 NPtTot=           0 NUsed=           0 NTot=          32
 NSgBfM=    43    43    43    43    43 MxSgAt=     3 MxSgA2=     3.
 Leave Link  302 at Mon Mar 20 17:58:39 2023, MaxMem=   754974720 cpu:               1.7 elap:               0.7
 (Enter /opt/cluster/programs/g16-c.01/g16/l303.exe)
 DipDrv:  MaxL=1.
 Leave Link  303 at Mon Mar 20 17:58:40 2023, MaxMem=   754974720 cpu:               0.5 elap:               0.3
 (Enter /opt/cluster/programs/g16-c.01/g16/l401.exe)
 ExpMin= 2.97D-02 ExpMax= 1.17D+04 ExpMxC= 4.01D+02 IAcc=3 IRadAn=         5 AccDes= 0.00D+00
 Harris functional with IExCor= 1009 and IRadAn=       5 diagonalized for initial guess.
 HarFok:  IExCor= 1009 AccDes= 0.00D+00 IRadAn=         5 IDoV= 1 UseB2=F ITyADJ=14
 ICtDFT=  3500011 ScaDFX=  1.000000  1.000000  1.000000  1.000000
 FoFCou: FMM=F IPFlag=           0 FMFlag=      100000 FMFlg1=           0
         NFxFlg=           0 DoJE=T BraDBF=F KetDBF=T FulRan=T
         wScrn=  0.000000 ICntrl=       500 IOpCl=  0 I1Cent=   200000004 NGrid=           0
         NMat0=    1 NMatS0=      1 NMatT0=    0 NMatD0=    1 NMtDS0=    0 NMtDT0=    0
 Petite list used in FoFCou.
 Harris En= -76.3868241229929    
 JPrj=0 DoOrth=F DoCkMO=F.
 Initial guess orbital symmetries:
       Occupied  (A') (A') (A') (A') (A")
       Virtual   (A') (A') (A') (A") (A') (A') (A') (A') (A') (A")
                 (A") (A') (A') (A') (A') (A') (A") (A') (A") (A')
                 (A") (A') (A') (A") (A') (A') (A") (A') (A') (A')
                 (A') (A") (A') (A") (A') (A')
 The electronic state of the initial guess is 1-A'.
 Leave Link  401 at Mon Mar 20 17:58:41 2023, MaxMem=   754974720 cpu:               1.9 elap:               1.0
 (Enter /opt/cluster/programs/g16-c.01/g16/l502.exe)
 Keep R1 ints in memory in symmetry-blocked form, NReq=3831793.
 FoFCou: FMM=F IPFlag=           0 FMFlag=           0 FMFlg1=           0
         NFxFlg=           0 DoJE=F BraDBF=F KetDBF=F FulRan=T
         wScrn=  0.000000 ICntrl=       600 IOpCl=  0 I1Cent=           0 NGrid=           0
         NMat0=    1 NMatS0=    861 NMatT0=    0 NMatD0=    1 NMtDS0=    0 NMtDT0=    0
 Petite list used in FoFCou.
 Closed shell SCF:
 Using DIIS extrapolation, IDIIS=  1040.
 NGot=   754974720 LenX=   754771907 LenY=   754769617
 Requested convergence on RMS density matrix=1.00D-08 within 200 cycles.
 Requested convergence on MAX density matrix=1.00D-06.
 Requested convergence on             energy=1.00D-06.
 No special actions if energy rises.

 Cycle   1  Pass 1  IDiag  1:
 E= -76.2771803299210    
 DIIS: error= 5.35D-02 at cycle   1 NSaved=   1.
 NSaved= 1 IEnMin= 1 EnMin= -76.2771803299210     IErMin= 1 ErrMin= 5.35D-02
 ErrMax= 5.35D-02  0.00D+00 EMaxC= 1.00D-01 BMatC= 9.16D-02 BMatP= 9.16D-02
 IDIUse=3 WtCom= 4.65D-01 WtEn= 5.35D-01
 Coeff-Com:  0.100D+01
 Coeff-En:   0.100D+01
 Coeff:      0.100D+01
 Gap=     0.177 Goal=   None    Shift=    0.000
 GapD=    0.177 DampG=1.000 DampE=0.500 DampFc=0.5000 IDamp=-1.
 Damping current iteration by 5.00D-01
 RMSDP=1.03D-02 MaxDP=1.65D-01              OVMax= 2.04D-01

 Cycle   2  Pass 1  IDiag  1:
 E= -76.2953976499190     Delta-E=       -0.018217319998 Rises=F Damp=T
 DIIS: error= 1.72D-02 at cycle   2 NSaved=   2.
 NSaved= 2 IEnMin= 2 EnMin= -76.2953976499190     IErMin= 2 ErrMin= 1.72D-02
 ErrMax= 1.72D-02  0.00D+00 EMaxC= 1.00D-01 BMatC= 7.99D-03 BMatP= 9.16D-02
 IDIUse=3 WtCom= 8.28D-01 WtEn= 1.72D-01
 Coeff-Com:  0.217D+00 0.783D+00
 Coeff-En:   0.366D+00 0.634D+00
 Coeff:      0.243D+00 0.757D+00
 Gap=     0.314 Goal=   None    Shift=    0.000
 RMSDP=1.26D-03 MaxDP=1.52D-02 DE=-1.82D-02 OVMax= 1.27D-01

 Cycle   3  Pass 1  IDiag  1:
 E= -76.3468096142848     Delta-E=       -0.051411964366 Rises=F Damp=F
 DIIS: error= 1.35D-03 at cycle   3 NSaved=   3.
 NSaved= 3 IEnMin= 3 EnMin= -76.3468096142848     IErMin= 3 ErrMin= 1.35D-03
 ErrMax= 1.35D-03  0.00D+00 EMaxC= 1.00D-01 BMatC= 6.25D-05 BMatP= 7.99D-03
 IDIUse=3 WtCom= 9.87D-01 WtEn= 1.35D-02
 Coeff-Com:  0.120D-01-0.499D-01 0.104D+01
 Coeff-En:   0.000D+00 0.000D+00 0.100D+01
 Coeff:      0.118D-01-0.492D-01 0.104D+01
 Gap=     0.325 Goal=   None    Shift=    0.000
 RMSDP=1.34D-04 MaxDP=1.60D-03 DE=-5.14D-02 OVMax= 1.57D-03

 Cycle   4  Pass 1  IDiag  1:
 E= -76.3468474207313     Delta-E=       -0.000037806447 Rises=F Damp=F
 DIIS: error= 2.96D-04 at cycle   4 NSaved=   4.
 NSaved= 4 IEnMin= 4 EnMin= -76.3468474207313     IErMin= 4 ErrMin= 2.96D-04
 ErrMax= 2.96D-04  0.00D+00 EMaxC= 1.00D-01 BMatC= 2.39D-06 BMatP= 6.25D-05
 IDIUse=3 WtCom= 9.97D-01 WtEn= 2.96D-03
 Coeff-Com:  0.405D-02-0.998D-02 0.950D-01 0.911D+00
 Coeff-En:   0.000D+00 0.000D+00 0.000D+00 0.100D+01
 Coeff:      0.404D-02-0.995D-02 0.948D-01 0.911D+00
 Gap=     0.325 Goal=   None    Shift=    0.000
 RMSDP=1.99D-05 MaxDP=3.38D-04 DE=-3.78D-05 OVMax= 4.31D-04

 Cycle   5  Pass 1  IDiag  1:
 E= -76.3468491587038     Delta-E=       -0.000001737973 Rises=F Damp=F
 DIIS: error= 4.07D-05 at cycle   5 NSaved=   5.
 NSaved= 5 IEnMin= 5 EnMin= -76.3468491587038     IErMin= 5 ErrMin= 4.07D-05
 ErrMax= 4.07D-05  0.00D+00 EMaxC= 1.00D-01 BMatC= 5.52D-08 BMatP= 2.39D-06
 IDIUse=1 WtCom= 1.00D+00 WtEn= 0.00D+00
 Coeff-Com:  0.114D-02-0.180D-02 0.347D-02 0.214D+00 0.783D+00
 Coeff:      0.114D-02-0.180D-02 0.347D-02 0.214D+00 0.783D+00
 Gap=     0.326 Goal=   None    Shift=    0.000
 RMSDP=3.60D-06 MaxDP=4.70D-05 DE=-1.74D-06 OVMax= 6.08D-05

 Cycle   6  Pass 1  IDiag  1:
 E= -76.3468492020315     Delta-E=       -0.000000043328 Rises=F Damp=F
 DIIS: error= 4.36D-06 at cycle   6 NSaved=   6.
 NSaved= 6 IEnMin= 6 EnMin= -76.3468492020315     IErMin= 6 ErrMin= 4.36D-06
 ErrMax= 4.36D-06  0.00D+00 EMaxC= 1.00D-01 BMatC= 3.96D-10 BMatP= 5.52D-08
 IDIUse=1 WtCom= 1.00D+00 WtEn= 0.00D+00
 Coeff-Com: -0.418D-04 0.442D-04-0.296D-03-0.201D-01-0.144D-01 0.103D+01
 Coeff:     -0.418D-04 0.442D-04-0.296D-03-0.201D-01-0.144D-01 0.103D+01
 Gap=     0.326 Goal=   None    Shift=    0.000
 RMSDP=4.46D-07 MaxDP=6.33D-06 DE=-4.33D-08 OVMax= 8.55D-06

 Cycle   7  Pass 1  IDiag  1:
 E= -76.3468492023759     Delta-E=       -0.000000000344 Rises=F Damp=F
 DIIS: error= 3.26D-07 at cycle   7 NSaved=   7.
 NSaved= 7 IEnMin= 7 EnMin= -76.3468492023759     IErMin= 7 ErrMin= 3.26D-07
 ErrMax= 3.26D-07  0.00D+00 EMaxC= 1.00D-01 BMatC= 4.94D-12 BMatP= 3.96D-10
 IDIUse=1 WtCom= 1.00D+00 WtEn= 0.00D+00
 Coeff-Com: -0.309D-04 0.455D-04-0.207D-03-0.860D-02-0.165D-01 0.265D+00
 Coeff-Com:  0.760D+00
 Coeff:     -0.309D-04 0.455D-04-0.207D-03-0.860D-02-0.165D-01 0.265D+00
 Coeff:      0.760D+00
 Gap=     0.326 Goal=   None    Shift=    0.000
 RMSDP=4.32D-08 MaxDP=5.38D-07 DE=-3.44D-10 OVMax= 8.70D-07

 Cycle   8  Pass 1  IDiag  1:
 E= -76.3468492023800     Delta-E=       -0.000000000004 Rises=F Damp=F
 DIIS: error= 8.37D-08 at cycle   8 NSaved=   8.
 NSaved= 8 IEnMin= 8 EnMin= -76.3468492023800     IErMin= 8 ErrMin= 8.37D-08
 ErrMax= 8.37D-08  0.00D+00 EMaxC= 1.00D-01 BMatC= 2.92D-13 BMatP= 4.94D-12
 IDIUse=1 WtCom= 1.00D+00 WtEn= 0.00D+00
 Coeff-Com: -0.101D-06 0.704D-06-0.312D-05 0.650D-03 0.111D-03-0.297D-01
 Coeff-Com:  0.656D-02 0.102D+01
 Coeff:     -0.101D-06 0.704D-06-0.312D-05 0.650D-03 0.111D-03-0.297D-01
 Coeff:      0.656D-02 0.102D+01
 Gap=     0.326 Goal=   None    Shift=    0.000
 RMSDP=8.60D-09 MaxDP=1.61D-07 DE=-4.09D-12 OVMax= 2.56D-07

 SCF Done:  E(RPBE1PBE) =  -76.3468492024     A.U. after    8 cycles
            NFock=  8  Conv=0.86D-08     -V/T= 2.0035
 KE= 7.608007767132D+01 PE=-1.994913451791D+02 EE= 3.757931548289D+01
 Leave Link  502 at Mon Mar 20 17:58:41 2023, MaxMem=   754974720 cpu:               2.1 elap:               0.6
 (Enter /opt/cluster/programs/g16-c.01/g16/l601.exe)
 Copying SCF densities to generalized density rwf, IOpCl= 0 IROHF=0.

 **********************************************************************

            Population analysis using the SCF Density.

 **********************************************************************

 Orbital symmetries:
       Occupied  (A') (A') (A') (A') (A")
       Virtual   (A') (A') (A') (A") (A') (A') (A') (A') (A') (A")
                 (A") (A') (A') (A') (A') (A') (A") (A') (A") (A')
                 (A") (A') (A') (A") (A') (A') (A") (A') (A') (A')
                 (A') (A") (A') (A") (A') (A')
 The electronic state is 1-A'.
 Alpha  occ. eigenvalues --  -19.23253  -1.07619  -0.52334  -0.44883  -0.33892
 Alpha virt. eigenvalues --   -0.01339   0.03553   0.10928   0.13275   0.14888
 Alpha virt. eigenvalues --    0.17451   0.18674   0.26810   0.28081   0.30351
 Alpha virt. eigenvalues --    0.31502   0.47444   0.51389   0.55580   0.61110
 Alpha virt. eigenvalues --    0.79172   0.92713   0.93916   0.96857   1.06454
 Alpha virt. eigenvalues --    1.20093   1.21234   1.38452   1.76187   1.80195
 Alpha virt. eigenvalues --    1.88114   1.90344   2.26368   2.38327   2.43725
 Alpha virt. eigenvalues --    2.74957   3.31235   3.32389   3.33407   3.65321
 Alpha virt. eigenvalues --    3.96661
          Condensed to atoms (all electrons):
               1          2          3
     1  O    7.527506   0.313109   0.326507
     2  H    0.313109   0.640422  -0.058079
     3  H    0.326507  -0.058079   0.668998
 Mulliken charges:
               1
     1  O   -0.167122
     2  H    0.104548
     3  H    0.062574
 Sum of Mulliken charges =  -0.00000
 Mulliken charges with hydrogens summed into heavy atoms:
               1
     1  O   -0.000000
 Electronic spatial extent (au):  <R**2>=             19.5469
 Charge=             -0.0000 electrons
 Dipole moment (field-independent basis, Debye):
    X=             -0.0324    Y=             -2.0926    Z=              0.0000  Tot=              2.0928
 Quadrupole moment (field-independent basis, Debye-Ang):
   XX=             -5.2472   YY=             -5.8963   ZZ=             -7.6520
   XY=             -0.0836   XZ=              0.0000   YZ=             -0.0000
 Traceless Quadrupole moment (field-independent basis, Debye-Ang):
   XX=              1.0180   YY=              0.3688   ZZ=             -1.3868
   XY=             -0.0836   XZ=              0.0000   YZ=             -0.0000
 Octapole moment (field-independent basis, Debye-Ang**2):
  XXX=             -0.0838  YYY=             -1.3460  ZZZ=              0.0000  XYY=              0.0653
  XXY=             -1.0827  XXZ=              0.0000  XZZ=             -0.0299  YZZ=             -0.2826
  YYZ=              0.0000  XYZ=             -0.0000
 Hexadecapole moment (field-independent basis, Debye-Ang**3):
 XXXX=             -6.7726 YYYY=             -7.8068 ZZZZ=             -7.4012 XXXY=              0.0421
 XXXZ=             -0.0000 YYYX=             -0.0030 YYYZ=              0.0000 ZZZX=             -0.0000
 ZZZY=              0.0000 XXYY=             -2.0480 XXZZ=             -2.5175 YYZZ=             -2.6176
 XXYZ=             -0.0000 YYXZ=             -0.0000 ZZXY=              0.0312
 N-N= 9.485102822543D+00 E-N=-1.994913419130D+02  KE= 7.608007767132D+01
 Symmetry A'   KE= 7.162890661125D+01
 Symmetry A"   KE= 4.451171060065D+00
 No NMR shielding tensors so no spin-rotation constants.
 Leave Link  601 at Mon Mar 20 17:58:42 2023, MaxMem=   754974720 cpu:               0.9 elap:               0.5
 (Enter /opt/cluster/programs/g16-c.01/g16/l9999.exe)
 Unable to Open any file for archive entry.
 1\1\GINC-NODE59\SP\RPBE1PBE\Aug-CC-pVDZ\H2O1\BOITTIER\20-Mar-2023\0\\#
 P PBE1PBE/aug-cc-pVDZ scf(maxcycle=200)\\Gaussian input\\0,1\O,0,0.,0.
 11751,0.\H,0,0.7578497316,-0.4701504329,0.\H,0,-0.5114732386,-0.633939
 3504,0.\\Version=ES64L-G16RevC.01\State=1-A'\HF=-76.3468492\RMSD=8.599
 e-09\Dipole=0.1364215,-0.8120083,0.\Quadrupole=0.7631803,0.2679034,-1.
 0310837,0.0277922,0.,0.\PG=CS [SG(H2O1)]\\@
 The archive entry for this job was punched.


 MANHOOD BEGINS BY TRYING TO SHAVE FACE,
 AND ENDS BY TRYING TO SAVE FACE.
 Job cpu time:       0 days  0 hours  0 minutes  8.3 seconds.
 Elapsed time:       0 days  0 hours  0 minutes  3.5 seconds.
 File lengths (MBytes):  RWF=      6 Int=      0 D2E=      0 Chk=      1 Scr=      1
 Normal termination of Gaussian 16 at Mon Mar 20 17:58:42 2023.
