 Entering Gaussian System, Link 0=/opt/cluster/programs/g16-c.01/g16/g16
 Input=/scratch/boittier/jobs/tmp.7261854/gaussian_174_water_ccsdt_atz.com
 Output=/scratch/boittier/jobs/tmp.7261854/gaussian_174_water_ccsdt_atz.out
 Initial command:
 /opt/cluster/programs/g16-c.01/g16/l1.exe "/scratch/boittier/jobs/tmp.7261854/Gau-99430.inp" -scrdir="/scratch/boittier/jobs/tmp.7261854/"
 Entering Link 1 = /opt/cluster/programs/g16-c.01/g16/l1.exe PID=     99431.
  
 Copyright (c) 1988-2019, Gaussian, Inc.  All Rights Reserved.
  
 This is part of the Gaussian(R) 16 program.  It is based on
 the Gaussian(R) 09 system (copyright 2009, Gaussian, Inc.),
 the Gaussian(R) 03 system (copyright 2003, Gaussian, Inc.),
 the Gaussian(R) 98 system (copyright 1998, Gaussian, Inc.),
 the Gaussian(R) 94 system (copyright 1995, Gaussian, Inc.),
 the Gaussian 92(TM) system (copyright 1992, Gaussian, Inc.),
 the Gaussian 90(TM) system (copyright 1990, Gaussian, Inc.),
 the Gaussian 88(TM) system (copyright 1988, Gaussian, Inc.),
 the Gaussian 86(TM) system (copyright 1986, Carnegie Mellon
 University), and the Gaussian 82(TM) system (copyright 1983,
 Carnegie Mellon University). Gaussian is a federally registered
 trademark of Gaussian, Inc.
  
 This software contains proprietary and confidential information,
 including trade secrets, belonging to Gaussian, Inc.
  
 This software is provided under written license and may be
 used, copied, transmitted, or stored only in accord with that
 written license.
  
 The following legend is applicable only to US Government
 contracts under FAR:
  
                    RESTRICTED RIGHTS LEGEND
  
 Use, reproduction and disclosure by the US Government is
 subject to restrictions as set forth in subparagraphs (a)
 and (c) of the Commercial Computer Software - Restricted
 Rights clause in FAR 52.227-19.
  
 Gaussian, Inc.
 340 Quinnipiac St., Bldg. 40, Wallingford CT 06492
  
  
 ---------------------------------------------------------------
 Warning -- This program may not be used in any manner that
 competes with the business of Gaussian, Inc. or will provide
 assistance to any competitor of Gaussian, Inc.  The licensee
 of this program is prohibited from giving any competitor of
 Gaussian, Inc. access to this program.  By using this program,
 the user acknowledges that Gaussian, Inc. is engaged in the
 business of creating and licensing software in the field of
 computational chemistry and represents and warrants to the
 licensee that it is not a competitor of Gaussian, Inc. and that
 it will not use this program in any manner prohibited above.
 ---------------------------------------------------------------
  

 Cite this work as:
 Gaussian 16, Revision C.01,
 M. J. Frisch, G. W. Trucks, H. B. Schlegel, G. E. Scuseria, 
 M. A. Robb, J. R. Cheeseman, G. Scalmani, V. Barone, 
 G. A. Petersson, H. Nakatsuji, X. Li, M. Caricato, A. V. Marenich, 
 J. Bloino, B. G. Janesko, R. Gomperts, B. Mennucci, H. P. Hratchian, 
 J. V. Ortiz, A. F. Izmaylov, J. L. Sonnenberg, D. Williams-Young, 
 F. Ding, F. Lipparini, F. Egidi, J. Goings, B. Peng, A. Petrone, 
 T. Henderson, D. Ranasinghe, V. G. Zakrzewski, J. Gao, N. Rega, 
 G. Zheng, W. Liang, M. Hada, M. Ehara, K. Toyota, R. Fukuda, 
 J. Hasegawa, M. Ishida, T. Nakajima, Y. Honda, O. Kitao, H. Nakai, 
 T. Vreven, K. Throssell, J. A. Montgomery, Jr., J. E. Peralta, 
 F. Ogliaro, M. J. Bearpark, J. J. Heyd, E. N. Brothers, K. N. Kudin, 
 V. N. Staroverov, T. A. Keith, R. Kobayashi, J. Normand, 
 K. Raghavachari, A. P. Rendell, J. C. Burant, S. S. Iyengar, 
 J. Tomasi, M. Cossi, J. M. Millam, M. Klene, C. Adamo, R. Cammi, 
 J. W. Ochterski, R. L. Martin, K. Morokuma, O. Farkas, 
 J. B. Foresman, and D. J. Fox, Gaussian, Inc., Wallingford CT, 2019.
 
 ******************************************
 Gaussian 16:  ES64L-G16RevC.01  3-Jul-2019
                 8-Feb-2023 
 ******************************************
 %nproc=4
 Will use up to    4 processors via shared memory.
 %mem=5760MB
 %chk=gaussian_174_water_ccsdt_atz.chk
 ----------------------------------------
 #P CCSD(T)/aug-cc-pVTZ scf(maxcycle=200)
 ----------------------------------------
 1/38=1,172=1/1;
 2/12=2,17=6,18=5,40=1/2;
 3/5=16,6=1,7=10,11=9,25=1,30=1/1,2,3;
 4//1;
 5/5=2,7=200,38=5/2;
 8/6=4,9=120000,10=1/1,4;
 9/5=7,14=2/13;
 6/7=2,8=2,9=2,10=2/1;
 99/5=1,9=1/99;
 Leave Link    1 at Wed Feb  8 13:57:57 2023, MaxMem=   754974720 cpu:               0.1 elap:               0.0
 (Enter /opt/cluster/programs/g16-c.01/g16/l101.exe)
 --------------
 Gaussian input
 --------------
 Symbolic Z-matrix:
 Charge =  0 Multiplicity = 1
 O                     0.        0.11751   0. 
 H                     0.79736  -0.50079   0. 
 H                    -0.87594  -0.38331   0. 
 
 ITRead=  0  0  0
 MicOpt= -1 -1 -1
 NAtoms=      3 NQM=        3 NQMF=       0 NMMI=      0 NMMIF=      0
                NMic=       0 NMicF=      0.
                    Isotopes and Nuclear Properties:
 (Nuclear quadrupole moments (NQMom) in fm**2, nuclear magnetic moments (NMagM)
  in nuclear magnetons)

  Atom         1           2           3
 IAtWgt=          16           1           1
 AtmWgt=  15.9949146   1.0078250   1.0078250
 NucSpn=           0           1           1
 AtZEff=  -0.0000000  -0.0000000  -0.0000000
 NQMom=    0.0000000   0.0000000   0.0000000
 NMagM=    0.0000000   2.7928460   2.7928460
 AtZNuc=   8.0000000   1.0000000   1.0000000
 Leave Link  101 at Wed Feb  8 13:57:57 2023, MaxMem=   754974720 cpu:               0.8 elap:               0.2
 (Enter /opt/cluster/programs/g16-c.01/g16/l202.exe)
                          Input orientation:                          
 ---------------------------------------------------------------------
 Center     Atomic      Atomic             Coordinates (Angstroms)
 Number     Number       Type             X           Y           Z
 ---------------------------------------------------------------------
      1          8           0        0.000000    0.117510    0.000000
      2          1           0        0.797362   -0.500790    0.000000
      3          1           0       -0.875935   -0.383308    0.000000
 ---------------------------------------------------------------------
                    Distance matrix (angstroms):
                    1          2          3
     1  O    0.000000
     2  H    1.009000   0.000000
     3  H    1.009000   1.677416   0.000000
 Stoichiometry    H2O
 Framework group  C2V[C2(O),SGV(H2)]
 Deg. of freedom     2
 Full point group                 C2V     NOp   4
 Largest Abelian subgroup         C2V     NOp   4
 Largest concise Abelian subgroup C2      NOp   2
                         Standard orientation:                         
 ---------------------------------------------------------------------
 Center     Atomic      Atomic             Coordinates (Angstroms)
 Number     Number       Type             X           Y           Z
 ---------------------------------------------------------------------
      1          8           0        0.000000    0.000000    0.112187
      2          1           0        0.000000    0.838708   -0.448749
      3          1           0       -0.000000   -0.838708   -0.448749
 ---------------------------------------------------------------------
 Rotational constants (GHZ):         897.2640317         356.4349812         255.0981415
 Leave Link  202 at Wed Feb  8 13:57:57 2023, MaxMem=   754974720 cpu:               0.2 elap:               0.1
 (Enter /opt/cluster/programs/g16-c.01/g16/l301.exe)
 Standard basis: Aug-CC-pVTZ (5D, 7F)
 Ernie: Thresh=  0.10000D-02 Tol=  0.10000D-05 Strict=F.
 Ernie:  3 primitive shells out of 52 were deleted.
 There are    42 symmetry adapted cartesian basis functions of A1  symmetry.
 There are    12 symmetry adapted cartesian basis functions of A2  symmetry.
 There are    20 symmetry adapted cartesian basis functions of B1  symmetry.
 There are    31 symmetry adapted cartesian basis functions of B2  symmetry.
 There are    35 symmetry adapted basis functions of A1  symmetry.
 There are    12 symmetry adapted basis functions of A2  symmetry.
 There are    18 symmetry adapted basis functions of B1  symmetry.
 There are    27 symmetry adapted basis functions of B2  symmetry.
    92 basis functions,   126 primitive gaussians,   105 cartesian basis functions
     5 alpha electrons        5 beta electrons
       nuclear repulsion energy         8.7067851516 Hartrees.
 IExCor=    0 DFT=F Ex=HF Corr=None ExCW=0 ScaHFX=  1.000000
 ScaDFX=  1.000000  1.000000  1.000000  1.000000 ScalE2=  1.000000  1.000000
 IRadAn=      5 IRanWt=     -1 IRanGd=            0 ICorTp=0 IEmpDi=  4
 NAtoms=    3 NActive=    3 NUniq=    2 SFac= 2.25D+00 NAtFMM=   60 NAOKFM=F Big=F
 Integral buffers will be    131072 words long.
 Raffenetti 1 integral format.
 Two-electron integral symmetry is turned on.
 Leave Link  301 at Wed Feb  8 13:57:57 2023, MaxMem=   754974720 cpu:               0.2 elap:               0.0
 (Enter /opt/cluster/programs/g16-c.01/g16/l302.exe)
 NPDir=0 NMtPBC=     1 NCelOv=     1 NCel=       1 NClECP=     1 NCelD=      1
         NCelK=      1 NCelE2=     1 NClLst=     1 CellRange=     0.0.
 One-electron integrals computed using PRISM.
 One-electron integral symmetry used in STVInt
 NBasis=    92 RedAO= T EigKep=  4.09D-04  NBF=    35    12    18    27
 NBsUse=    92 1.00D-06 EigRej= -1.00D+00 NBFU=    35    12    18    27
 Leave Link  302 at Wed Feb  8 13:57:57 2023, MaxMem=   754974720 cpu:               0.6 elap:               0.2
 (Enter /opt/cluster/programs/g16-c.01/g16/l303.exe)
 DipDrv:  MaxL=1.
 Leave Link  303 at Wed Feb  8 13:57:57 2023, MaxMem=   754974720 cpu:               0.3 elap:               0.1
 (Enter /opt/cluster/programs/g16-c.01/g16/l401.exe)
 ExpMin= 2.53D-02 ExpMax= 1.53D+04 ExpMxC= 5.22D+02 IAcc=3 IRadAn=         5 AccDes= 0.00D+00
 Harris functional with IExCor=  205 and IRadAn=       5 diagonalized for initial guess.
 HarFok:  IExCor=  205 AccDes= 0.00D+00 IRadAn=         5 IDoV= 1 UseB2=F ITyADJ=14
 ICtDFT=  3500011 ScaDFX=  1.000000  1.000000  1.000000  1.000000
 FoFCou: FMM=F IPFlag=           0 FMFlag=      100000 FMFlg1=           0
         NFxFlg=           0 DoJE=T BraDBF=F KetDBF=T FulRan=T
         wScrn=  0.000000 ICntrl=       500 IOpCl=  0 I1Cent=   200000004 NGrid=           0
         NMat0=    1 NMatS0=      1 NMatT0=    0 NMatD0=    1 NMtDS0=    0 NMtDT0=    0
 Petite list used in FoFCou.
 Harris En= -76.1460645361554    
 JPrj=0 DoOrth=F DoCkMO=F.
 Initial guess orbital symmetries:
       Occupied  (A1) (A1) (B2) (A1) (B1)
       Virtual   (A1) (B2) (A1) (B1) (A1) (B2) (B2) (A1) (A2) (A1)
                 (B1) (A1) (B2) (B2) (B2) (A1) (A1) (B1) (A2) (A1)
                 (A1) (B1) (B2) (B1) (A2) (B2) (A1) (B2) (A1) (B1)
                 (B2) (A1) (A2) (B2) (A2) (B1) (A1) (B2) (A1) (B2)
                 (A1) (B1) (A2) (A1) (A1) (B1) (B2) (A1) (A1) (B1)
                 (B2) (A2) (B2) (B2) (A1) (B1) (A2) (B2) (A1) (B1)
                 (B2) (B1) (A2) (A1) (A1) (B2) (B2) (A2) (A1) (B2)
                 (B1) (A1) (A1) (B2) (B1) (A1) (B1) (B1) (A1) (A2)
                 (A2) (B2) (A1) (B2) (A1) (B2) (A1)
 The electronic state of the initial guess is 1-A1.
 Leave Link  401 at Wed Feb  8 13:57:58 2023, MaxMem=   754974720 cpu:               1.0 elap:               0.3
 (Enter /opt/cluster/programs/g16-c.01/g16/l502.exe)
 Keep R1 ints in memory in symmetry-blocked form, NReq=11496777.
 FoFCou: FMM=F IPFlag=           0 FMFlag=           0 FMFlg1=           0
         NFxFlg=           0 DoJE=F BraDBF=F KetDBF=F FulRan=T
         wScrn=  0.000000 ICntrl=       600 IOpCl=  0 I1Cent=           0 NGrid=           0
         NMat0=    1 NMatS0=   4278 NMatT0=    0 NMatD0=    1 NMtDS0=    0 NMtDT0=    0
 Petite list used in FoFCou.
 Closed shell SCF:
 Using DIIS extrapolation, IDIIS=  1040.
 NGot=   754974720 LenX=   752607631 LenY=   752596165
 Requested convergence on RMS density matrix=1.00D-08 within 200 cycles.
 Requested convergence on MAX density matrix=1.00D-06.
 Requested convergence on             energy=1.00D-06.
 No special actions if energy rises.

 Cycle   1  Pass 1  IDiag  1:
 E= -75.9646469769908    
 DIIS: error= 5.70D-02 at cycle   1 NSaved=   1.
 NSaved= 1 IEnMin= 1 EnMin= -75.9646469769908     IErMin= 1 ErrMin= 5.70D-02
 ErrMax= 5.70D-02  0.00D+00 EMaxC= 1.00D-01 BMatC= 1.95D-01 BMatP= 1.95D-01
 IDIUse=3 WtCom= 4.30D-01 WtEn= 5.70D-01
 Coeff-Com:  0.100D+01
 Coeff-En:   0.100D+01
 Coeff:      0.100D+01
 Gap=     0.452 Goal=   None    Shift=    0.000
 GapD=    0.452 DampG=2.000 DampE=0.500 DampFc=1.0000 IDamp=-1.
 RMSDP=2.11D-03 MaxDP=4.70D-02              OVMax= 1.26D-01

 Cycle   2  Pass 1  IDiag  1:
 E= -76.0122119561867     Delta-E=       -0.047564979196 Rises=F Damp=F
 DIIS: error= 4.03D-02 at cycle   2 NSaved=   2.
 NSaved= 2 IEnMin= 2 EnMin= -76.0122119561867     IErMin= 2 ErrMin= 4.03D-02
 ErrMax= 4.03D-02  0.00D+00 EMaxC= 1.00D-01 BMatC= 6.08D-02 BMatP= 1.95D-01
 IDIUse=3 WtCom= 5.97D-01 WtEn= 4.03D-01
 Coeff-Com:  0.331D+00 0.669D+00
 Coeff-En:   0.233D+00 0.767D+00
 Coeff:      0.291D+00 0.709D+00
 Gap=     0.559 Goal=   None    Shift=    0.000
 RMSDP=1.31D-03 MaxDP=3.31D-02 DE=-4.76D-02 OVMax= 6.66D-02

 Cycle   3  Pass 1  IDiag  1:
 E= -76.0488672124164     Delta-E=       -0.036655256230 Rises=F Damp=F
 DIIS: error= 8.09D-03 at cycle   3 NSaved=   3.
 NSaved= 3 IEnMin= 3 EnMin= -76.0488672124164     IErMin= 3 ErrMin= 8.09D-03
 ErrMax= 8.09D-03  0.00D+00 EMaxC= 1.00D-01 BMatC= 2.85D-03 BMatP= 6.08D-02
 IDIUse=3 WtCom= 9.19D-01 WtEn= 8.09D-02
 Coeff-Com: -0.317D-01 0.147D+00 0.885D+00
 Coeff-En:   0.000D+00 0.000D+00 0.100D+01
 Coeff:     -0.292D-01 0.135D+00 0.894D+00
 Gap=     0.530 Goal=   None    Shift=    0.000
 RMSDP=2.22D-04 MaxDP=4.23D-03 DE=-3.67D-02 OVMax= 1.33D-02

 Cycle   4  Pass 1  IDiag  1:
 E= -76.0507057092241     Delta-E=       -0.001838496808 Rises=F Damp=F
 DIIS: error= 7.68D-04 at cycle   4 NSaved=   4.
 NSaved= 4 IEnMin= 4 EnMin= -76.0507057092241     IErMin= 4 ErrMin= 7.68D-04
 ErrMax= 7.68D-04  0.00D+00 EMaxC= 1.00D-01 BMatC= 1.76D-05 BMatP= 2.85D-03
 IDIUse=3 WtCom= 9.92D-01 WtEn= 7.68D-03
 Coeff-Com:  0.686D-02-0.554D-01-0.242D+00 0.129D+01
 Coeff-En:   0.000D+00 0.000D+00 0.000D+00 0.100D+01
 Coeff:      0.681D-02-0.550D-01-0.240D+00 0.129D+01
 Gap=     0.532 Goal=   None    Shift=    0.000
 RMSDP=4.42D-05 MaxDP=7.93D-04 DE=-1.84D-03 OVMax= 2.62D-03

 Cycle   5  Pass 1  IDiag  1:
 E= -76.0507376657196     Delta-E=       -0.000031956495 Rises=F Damp=F
 DIIS: error= 2.25D-04 at cycle   5 NSaved=   5.
 NSaved= 5 IEnMin= 5 EnMin= -76.0507376657196     IErMin= 5 ErrMin= 2.25D-04
 ErrMax= 2.25D-04  0.00D+00 EMaxC= 1.00D-01 BMatC= 9.79D-07 BMatP= 1.76D-05
 IDIUse=3 WtCom= 9.98D-01 WtEn= 2.25D-03
 Coeff-Com:  0.776D-03-0.607D-03-0.769D-02-0.250D+00 0.126D+01
 Coeff-En:   0.000D+00 0.000D+00 0.000D+00 0.000D+00 0.100D+01
 Coeff:      0.774D-03-0.606D-03-0.767D-02-0.249D+00 0.126D+01
 Gap=     0.533 Goal=   None    Shift=    0.000
 RMSDP=1.42D-05 MaxDP=2.91D-04 DE=-3.20D-05 OVMax= 9.16D-04

 Cycle   6  Pass 1  IDiag  1:
 E= -76.0507402900357     Delta-E=       -0.000002624316 Rises=F Damp=F
 DIIS: error= 3.83D-05 at cycle   6 NSaved=   6.
 NSaved= 6 IEnMin= 6 EnMin= -76.0507402900357     IErMin= 6 ErrMin= 3.83D-05
 ErrMax= 3.83D-05  0.00D+00 EMaxC= 1.00D-01 BMatC= 3.24D-08 BMatP= 9.79D-07
 IDIUse=1 WtCom= 1.00D+00 WtEn= 0.00D+00
 Coeff-Com: -0.389D-03 0.201D-02 0.938D-02 0.684D-02-0.317D+00 0.130D+01
 Coeff:     -0.389D-03 0.201D-02 0.938D-02 0.684D-02-0.317D+00 0.130D+01
 Gap=     0.533 Goal=   None    Shift=    0.000
 RMSDP=3.15D-06 MaxDP=7.58D-05 DE=-2.62D-06 OVMax= 2.16D-04

 Cycle   7  Pass 1  IDiag  1:
 E= -76.0507403970127     Delta-E=       -0.000000106977 Rises=F Damp=F
 DIIS: error= 6.93D-06 at cycle   7 NSaved=   7.
 NSaved= 7 IEnMin= 7 EnMin= -76.0507403970127     IErMin= 7 ErrMin= 6.93D-06
 ErrMax= 6.93D-06  0.00D+00 EMaxC= 1.00D-01 BMatC= 1.68D-09 BMatP= 3.24D-08
 IDIUse=1 WtCom= 1.00D+00 WtEn= 0.00D+00
 Coeff-Com:  0.463D-04-0.441D-03-0.205D-02 0.156D-01-0.445D-02-0.244D+00
 Coeff-Com:  0.124D+01
 Coeff:      0.463D-04-0.441D-03-0.205D-02 0.156D-01-0.445D-02-0.244D+00
 Coeff:      0.124D+01
 Gap=     0.533 Goal=   None    Shift=    0.000
 RMSDP=4.57D-07 MaxDP=1.23D-05 DE=-1.07D-07 OVMax= 4.27D-05

 Cycle   8  Pass 1  IDiag  1:
 E= -76.0507404009857     Delta-E=       -0.000000003973 Rises=F Damp=F
 DIIS: error= 1.96D-06 at cycle   8 NSaved=   8.
 NSaved= 8 IEnMin= 8 EnMin= -76.0507404009857     IErMin= 8 ErrMin= 1.96D-06
 ErrMax= 1.96D-06  0.00D+00 EMaxC= 1.00D-01 BMatC= 9.93D-11 BMatP= 1.68D-09
 IDIUse=1 WtCom= 1.00D+00 WtEn= 0.00D+00
 Coeff-Com:  0.825D-05 0.168D-04 0.164D-03-0.564D-02 0.195D-01 0.526D-02
 Coeff-Com: -0.409D+00 0.139D+01
 Coeff:      0.825D-05 0.168D-04 0.164D-03-0.564D-02 0.195D-01 0.526D-02
 Coeff:     -0.409D+00 0.139D+01
 Gap=     0.533 Goal=   None    Shift=    0.000
 RMSDP=1.49D-07 MaxDP=3.47D-06 DE=-3.97D-09 OVMax= 1.04D-05

 Cycle   9  Pass 1  IDiag  1:
 E= -76.0507404012401     Delta-E=       -0.000000000254 Rises=F Damp=F
 DIIS: error= 2.45D-07 at cycle   9 NSaved=   9.
 NSaved= 9 IEnMin= 9 EnMin= -76.0507404012401     IErMin= 9 ErrMin= 2.45D-07
 ErrMax= 2.45D-07  0.00D+00 EMaxC= 1.00D-01 BMatC= 1.45D-12 BMatP= 9.93D-11
 IDIUse=1 WtCom= 1.00D+00 WtEn= 0.00D+00
 Coeff-Com: -0.252D-05 0.235D-05-0.179D-04 0.109D-02-0.394D-02 0.183D-03
 Coeff-Com:  0.929D-01-0.396D+00 0.131D+01
 Coeff:     -0.252D-05 0.235D-05-0.179D-04 0.109D-02-0.394D-02 0.183D-03
 Coeff:      0.929D-01-0.396D+00 0.131D+01
 Gap=     0.533 Goal=   None    Shift=    0.000
 RMSDP=2.39D-08 MaxDP=4.46D-07 DE=-2.54D-10 OVMax= 1.07D-06

 Cycle  10  Pass 1  IDiag  1:
 E= -76.0507404012438     Delta-E=       -0.000000000004 Rises=F Damp=F
 DIIS: error= 4.97D-08 at cycle  10 NSaved=  10.
 NSaved=10 IEnMin=10 EnMin= -76.0507404012438     IErMin=10 ErrMin= 4.97D-08
 ErrMax= 4.97D-08  0.00D+00 EMaxC= 1.00D-01 BMatC= 5.87D-14 BMatP= 1.45D-12
 IDIUse=1 WtCom= 1.00D+00 WtEn= 0.00D+00
 Coeff-Com:  0.736D-06-0.142D-05 0.221D-05-0.267D-03 0.103D-02-0.649D-03
 Coeff-Com: -0.210D-01 0.103D+00-0.497D+00 0.141D+01
 Coeff:      0.736D-06-0.142D-05 0.221D-05-0.267D-03 0.103D-02-0.649D-03
 Coeff:     -0.210D-01 0.103D+00-0.497D+00 0.141D+01
 Gap=     0.533 Goal=   None    Shift=    0.000
 RMSDP=5.96D-09 MaxDP=1.54D-07 DE=-3.67D-12 OVMax= 3.13D-07

 SCF Done:  E(RHF) =  -76.0507404012     A.U. after   10 cycles
            NFock= 10  Conv=0.60D-08     -V/T= 2.0039
 KE= 7.575717042098D+01 PE=-1.979468241332D+02 EE= 3.743212815939D+01
 Leave Link  502 at Wed Feb  8 13:57:58 2023, MaxMem=   754974720 cpu:               2.3 elap:               0.6
 (Enter /opt/cluster/programs/g16-c.01/g16/l801.exe)
 Windowed orbitals will be sorted by symmetry type.
 ExpMin= 2.53D-02 ExpMax= 1.53D+04 ExpMxC= 5.22D+02 IAcc=3 IRadAn=         5 AccDes= 0.00D+00
 HarFok:  IExCor=  205 AccDes= 0.00D+00 IRadAn=         5 IDoV=-2 UseB2=F ITyADJ=14
 ICtDFT= 12500011 ScaDFX=  1.000000  1.000000  1.000000  1.000000
 Largest valence mixing into a core orbital is  1.13D-04
 Largest core mixing into a valence orbital is  1.86D-05
 Range of M.O.s used for correlation:     2    92
 NBasis=    92 NAE=     5 NBE=     5 NFC=     1 NFV=     0
 NROrb=     91 NOA=     4 NOB=     4 NVA=    87 NVB=    87

 **** Warning!!: The largest alpha MO coefficient is  0.15299105D+02

 Leave Link  801 at Wed Feb  8 13:57:59 2023, MaxMem=   754974720 cpu:               0.3 elap:               0.1
 (Enter /opt/cluster/programs/g16-c.01/g16/l804.exe)
 Closed-shell transformation, MDV=   754974720 ITran=4 ISComp=2.
 Unit  1 TFree=        277513 TCopy=        242092.
 Semi-Direct transformation.
 ModeAB=           4 MOrb=             4 LenV=     754589018
 LASXX=       368428 LTotXX=      368428 LenRXX=      751146
 LTotAB=      382718 MaxLAS=     1379560 LenRXY=           0
 NonZer=     1119574 LenScr=     2357760 LnRSAI=     1379560
 LnScr1=     2758656 LExtra=           0 Total=      7247122
 MaxDsk=          -1 SrtSym=           T ITran=            4
 DoSDTr:  NPSUse=  4
 JobTyp=0 Pass  1:  I=   1 to   4.
 (rs|ai) integrals will be sorted in core.
 Complete sort for first half transformation.
 First half transformation complete.
 Complete sort for second half transformation.
 Second half transformation complete.
 Spin components of T(2) and E(2):
     alpha-alpha T2 =       0.8524579546D-02 E2=     -0.3299118623D-01
     alpha-beta  T2 =       0.4987205254D-01 E2=     -0.2060650202D+00
     beta-beta   T2 =       0.8524579546D-02 E2=     -0.3299118623D-01
 ANorm=    0.1032918783D+01
 E2 =    -0.2720473926D+00 EUMP2 =    -0.76322787793891D+02
 Leave Link  804 at Wed Feb  8 13:57:59 2023, MaxMem=   754974720 cpu:               1.8 elap:               0.5
 (Enter /opt/cluster/programs/g16-c.01/g16/l913.exe)
 CIDS:  MDV=   754974720.
 Frozen-core window:  NFC=   1 NFV=   0.
 IFCWin=0 IBDFC=1 NFBD=     0     0 NFCmp=     0     0 NFFFC=     0     0
 Using DD3R+UMP44R for 1st iteration.
 Using DD4RQ for 2nd and later iterations.
 Keep R2 and R3 ints in memory in symmetry-blocked form, NReq=11500115.
 FoFCou: FMM=F IPFlag=           0 FMFlag=           0 FMFlg1=           0
         NFxFlg=           0 DoJE=F BraDBF=F KetDBF=F FulRan=T
         wScrn=  0.000000 ICntrl=       600 IOpCl=  0 I1Cent=           0 NGrid=           0
         NMat0=    1 NMatS0=   4278 NMatT0=    0 NMatD0=    1 NMtDS0=    0 NMtDT0=    0
 Petite list used in FoFCou.
 CIDS: In Core Option IDoMem=           1.
 CCSD(T)
 =======
 Iterations=  50 Convergence= 0.100D-06
 Produce multiple copies of IABC intergrals
 Iteration Nr.   1
 **********************
 DD1Dir will call FoFMem   1 times, MxPair=        20
 NAB=    10 NAA=     0 NBB=     0.
 MP4(R+Q)=  0.42401564D-02
 Maximum subspace dimension=  5
 A-vector RMS=  3.0647496D-03 Max=  1.3529127D-02 conv= 1.00D-05.
 RLE energy=       -0.2695430786
 E3=       -0.17575532D-02        EUMP3=      -0.76324545347D+02
 E4(DQ)=   -0.94343703D-03        UMP4(DQ)=   -0.76325488784D+02
 E4(SDQ)=  -0.30582755D-02        UMP4(SDQ)=  -0.76327603623D+02
 VARIATIONAL ENERGIES WITH THE FIRST-ORDER WAVEFUNCTION:
 DE(Corr)= -0.26951982     E(Corr)=     -76.320260220    
 NORM(A)=   0.10325690D+01
 Iteration Nr.   2
 **********************
 DD1Dir will call FoFMem   1 times, MxPair=        20
 NAB=    10 NAA=     0 NBB=     0.
 A-vector RMS=  3.4567233D-04 Max=  2.4444976D-03 conv= 1.00D-05.
 RLE energy=       -0.2759087439
 DE(Corr)= -0.27548587     E(CORR)=     -76.326226276     Delta=-5.97D-03
 NORM(A)=   0.10350094D+01
 Iteration Nr.   3
 **********************
 DD1Dir will call FoFMem   1 times, MxPair=        20
 NAB=    10 NAA=     0 NBB=     0.
 A-vector RMS=  4.4638172D-04 Max=  2.5441299D-03 conv= 1.00D-05.
 RLE energy=       -0.2762780614
 DE(Corr)= -0.27583666     E(CORR)=     -76.326577065     Delta=-3.51D-04
 NORM(A)=   0.10355249D+01
 Iteration Nr.   4
 **********************
 DD1Dir will call FoFMem   1 times, MxPair=        20
 NAB=    10 NAA=     0 NBB=     0.
 A-vector RMS=  7.3921010D-05 Max=  4.3378539D-04 conv= 1.00D-05.
 RLE energy=       -0.2763191220
 DE(Corr)= -0.27628478     E(CORR)=     -76.327025177     Delta=-4.48D-04
 NORM(A)=   0.10356618D+01
 Iteration Nr.   5
 **********************
 DD1Dir will call FoFMem   1 times, MxPair=        20
 NAB=    10 NAA=     0 NBB=     0.
 A-vector RMS=  3.6429425D-05 Max=  2.1442410D-04 conv= 1.00D-05.
 RLE energy=       -0.2763346831
 DE(Corr)= -0.27632761     E(CORR)=     -76.327068009     Delta=-4.28D-05
 NORM(A)=   0.10356907D+01
 Iteration Nr.   6
 **********************
 DD1Dir will call FoFMem   1 times, MxPair=        20
 NAB=    10 NAA=     0 NBB=     0.
 A-vector RMS=  8.9872700D-06 Max=  4.1381604D-05 conv= 1.00D-05.
 RLE energy=       -0.2763299493
 DE(Corr)= -0.27633134     E(CORR)=     -76.327071742     Delta=-3.73D-06
 NORM(A)=   0.10356932D+01
 Iteration Nr.   7
 **********************
 DD1Dir will call FoFMem   1 times, MxPair=        20
 NAB=    10 NAA=     0 NBB=     0.
 A-vector RMS=  3.6980188D-06 Max=  2.1551978D-05 conv= 1.00D-05.
 RLE energy=       -0.2763302295
 DE(Corr)= -0.27633142     E(CORR)=     -76.327071821     Delta=-7.88D-08
 NORM(A)=   0.10356940D+01
 Iteration Nr.   8
 **********************
 DD1Dir will call FoFMem   1 times, MxPair=        20
 NAB=    10 NAA=     0 NBB=     0.
 A-vector RMS=  1.3717271D-06 Max=  6.9859141D-06 conv= 1.00D-05.
 RLE energy=       -0.2763308840
 DE(Corr)= -0.27633106     E(CORR)=     -76.327071458     Delta= 3.63D-07
 NORM(A)=   0.10356945D+01
 Iteration Nr.   9
 **********************
 DD1Dir will call FoFMem   1 times, MxPair=        20
 NAB=    10 NAA=     0 NBB=     0.
 A-vector RMS=  4.6689358D-07 Max=  2.7351860D-06 conv= 1.00D-05.
 RLE energy=       -0.2763310650
 DE(Corr)= -0.27633109     E(CORR)=     -76.327071492     Delta=-3.41D-08
 NORM(A)=   0.10356947D+01
 CI/CC converged in    9 iterations to DelEn=-3.41D-08 Conv= 1.00D-07 ErrA1= 4.67D-07 Conv= 1.00D-05
 Wavefunction amplitudes converged. E(Corr)=     -76.327071492    
 Largest amplitude= 2.37D-02
 IPart=  3 IA=    6   11.23% done.
 IPart=  2 IA=   11   21.79% done.
 IPart=  1 IA=   16   31.68% done.
 IPart=  4 IA=   21   40.90% done.
 IPart=  4 IA=   27   51.08% done.
 IPart=  3 IA=   33   60.30% done.
 IPart=  1 IA=   41   71.10% done.
 IPart=  2 IA=   49   80.19% done.
 IPart=  3 IA=   61   90.62% done.
 Time for triples=        7.15 seconds.
 T4(CCSD)= -0.94833796D-02
 T5(CCSD)=  0.36214321D-03
 CCSD(T)= -0.76336192728D+02
 Discarding MO integrals.
 Leave Link  913 at Wed Feb  8 13:58:02 2023, MaxMem=   754974720 cpu:              11.7 elap:               2.9
 (Enter /opt/cluster/programs/g16-c.01/g16/l601.exe)
 Copying SCF densities to generalized density rwf, IOpCl= 0 IROHF=0.

 **********************************************************************

            Population analysis using the SCF Density.

 **********************************************************************

 Orbital symmetries:
       Occupied  (A1) (A1) (B2) (A1) (B1)
       Virtual   (A1) (B2) (A1) (B1) (A1) (B2) (B2) (A1) (A2) (B1)
                 (A1) (B2) (A1) (B2) (B2) (A1) (A1) (A2) (B1) (A1)
                 (B1) (B2) (A1) (A2) (B2) (B1) (A1) (A1) (B2) (B1)
                 (B2) (A1) (A2) (B2) (A2) (B1) (A1) (B2) (A1) (B2)
                 (A1) (B1) (A2) (A1) (A1) (B1) (B2) (A1) (A1) (B1)
                 (B2) (A2) (B2) (B2) (A1) (A2) (B1) (B2) (A1) (B1)
                 (A2) (B1) (B2) (A1) (A1) (B2) (B2) (A2) (A1) (B2)
                 (B1) (A1) (A1) (B2) (B1) (A1) (B1) (A2) (B1) (A1)
                 (B2) (A2) (A1) (B2) (A1) (B2) (A1)
 The electronic state is 1-A1.
 Alpha  occ. eigenvalues --  -20.57194  -1.32348  -0.70347  -0.56011  -0.50370
 Alpha virt. eigenvalues --    0.02915   0.04695   0.13661   0.15988   0.17074
 Alpha virt. eigenvalues --    0.18090   0.22571   0.24168   0.26180   0.30680
 Alpha virt. eigenvalues --    0.31431   0.36362   0.42553   0.45720   0.60232
 Alpha virt. eigenvalues --    0.64441   0.71263   0.71753   0.73105   0.80791
 Alpha virt. eigenvalues --    0.83806   0.90024   0.90058   0.91119   0.92672
 Alpha virt. eigenvalues --    0.93678   0.97549   1.00734   1.02945   1.07801
 Alpha virt. eigenvalues --    1.10834   1.15165   1.15351   1.27999   1.50447
 Alpha virt. eigenvalues --    1.57469   1.60262   1.70228   1.81490   1.95348
 Alpha virt. eigenvalues --    2.06111   2.24907   2.30781   2.31857   2.38804
 Alpha virt. eigenvalues --    2.39008   2.43549   2.49817   2.70703   2.72305
 Alpha virt. eigenvalues --    2.73565   2.84823   2.88968   3.53556   3.70413
 Alpha virt. eigenvalues --    3.96934   4.03428   4.14853   4.17104   4.29115
 Alpha virt. eigenvalues --    4.36759   4.37363   4.42870   4.51501   4.59874
 Alpha virt. eigenvalues --    4.63661   4.97967   5.05460   5.12500   5.26786
 Alpha virt. eigenvalues --    5.33758   5.64865   6.00201   6.57729   6.68687
 Alpha virt. eigenvalues --    6.75953   7.09997   7.16041   7.21034   7.25260
 Alpha virt. eigenvalues --    7.33392   7.36998   7.42158   7.71974   7.89456
 Alpha virt. eigenvalues --    8.47734  14.42715
          Condensed to atoms (all electrons):
               1          2          3
     1  O    7.993640   0.260840   0.260840
     2  H    0.260840   0.453897   0.027603
     3  H    0.260840   0.027603   0.453897
 Mulliken charges:
               1
     1  O   -0.515321
     2  H    0.257660
     3  H    0.257660
 Sum of Mulliken charges =   0.00000
 Mulliken charges with hydrogens summed into heavy atoms:
               1
     1  O    0.000000
 Electronic spatial extent (au):  <R**2>=             20.1752
 Charge=              0.0000 electrons
 Dipole moment (field-independent basis, Debye):
    X=             -0.0000    Y=              0.0000    Z=             -1.8828  Tot=              1.8828
 Quadrupole moment (field-independent basis, Debye-Ang):
   XX=             -7.6919   YY=             -3.7398   ZZ=             -6.5291
   XY=              0.0000   XZ=              0.0000   YZ=             -0.0000
 Traceless Quadrupole moment (field-independent basis, Debye-Ang):
   XX=             -1.7049   YY=              2.2471   ZZ=             -0.5422
   XY=              0.0000   XZ=              0.0000   YZ=             -0.0000
 Octapole moment (field-independent basis, Debye-Ang**2):
  XXX=              0.0000  YYY=              0.0000  ZZZ=             -0.9296  XYY=             -0.0000
  XXY=             -0.0000  XXZ=             -0.2058  XZZ=              0.0000  YZZ=              0.0000
  YYZ=             -1.5805  XYZ=             -0.0000
 Hexadecapole moment (field-independent basis, Debye-Ang**3):
 XXXX=             -6.9498 YYYY=             -5.9513 ZZZZ=             -7.6168 XXXY=             -0.0000
 XXXZ=             -0.0000 YYYX=              0.0000 YYYZ=             -0.0000 ZZZX=             -0.0000
 ZZZY=              0.0000 XXYY=             -2.6450 XXZZ=             -2.4679 YYZZ=             -1.9924
 XXYZ=              0.0000 YYXZ=              0.0000 ZZXY=              0.0000
 N-N= 8.706785151591D+00 E-N=-1.979468241575D+02  KE= 7.575717042098D+01
 Symmetry A1   KE= 6.786751401659D+01
 Symmetry A2   KE= 9.383352899330D-21
 Symmetry B1   KE= 4.465295014783D+00
 Symmetry B2   KE= 3.424361389602D+00
 Leave Link  601 at Wed Feb  8 13:58:02 2023, MaxMem=   754974720 cpu:               0.2 elap:               0.1
 (Enter /opt/cluster/programs/g16-c.01/g16/l9999.exe)
 Unable to Open any file for archive entry.
 1\1\GINC-NODE61\SP\RCCSD(T)-FC\Aug-CC-pVTZ\H2O1\BOITTIER\08-Feb-2023\0
 \\#P CCSD(T)/aug-cc-pVTZ scf(maxcycle=200)\\Gaussian input\\0,1\O,0,0.
 ,0.11751,0.\H,0,0.7973622306,-0.5007896629,0.\H,0,-0.8759350061,-0.383
 3081957,0.\\Version=ES64L-G16RevC.01\State=1-A1\HF=-76.0507404\MP2=-76
 .3227878\MP3=-76.3245453\MP4D=-76.3297289\MP4DQ=-76.3254888\MP4SDQ=-76
 .3276036\CCSD=-76.3270715\CCSD(T)=-76.3361927\RMSD=5.960e-09\PG=C02V [
 C2(O1),SGV(H2)]\\@
 The archive entry for this job was punched.


 ASKING FOR EFFICIENCY AND ADAPTABILITY IN THE SAME PROGRAM IS LIKE
 ASKING FOR A BEAUTIFUL AND MODEST WIFE ...
 WE'LL PROBABLY HAVE TO SETTLE FOR ONE OR THE OTHER.

             -- THE PSYCHOLOGY OF COMPUTER PROGRAMMING
                GERALD M. WEINBERG
 Job cpu time:       0 days  0 hours  0 minutes 19.8 seconds.
 Elapsed time:       0 days  0 hours  0 minutes  5.2 seconds.
 File lengths (MBytes):  RWF=     64 Int=      0 D2E=      0 Chk=      2 Scr=      1
 Normal termination of Gaussian 16 at Wed Feb  8 13:58:02 2023.
