 Entering Gaussian System, Link 0=/opt/cluster/programs/g16-c.01/g16/g16
 Input=/scratch/boittier/jobs/tmp.7262080/gaussian_137_water_wb97_ptz.com
 Output=/scratch/boittier/jobs/tmp.7262080/gaussian_137_water_wb97_ptz.out
 Initial command:
 /opt/cluster/programs/g16-c.01/g16/l1.exe "/scratch/boittier/jobs/tmp.7262080/Gau-104726.inp" -scrdir="/scratch/boittier/jobs/tmp.7262080/"
 Entering Link 1 = /opt/cluster/programs/g16-c.01/g16/l1.exe PID=    104727.
  
 Copyright (c) 1988-2019, Gaussian, Inc.  All Rights Reserved.
  
 This is part of the Gaussian(R) 16 program.  It is based on
 the Gaussian(R) 09 system (copyright 2009, Gaussian, Inc.),
 the Gaussian(R) 03 system (copyright 2003, Gaussian, Inc.),
 the Gaussian(R) 98 system (copyright 1998, Gaussian, Inc.),
 the Gaussian(R) 94 system (copyright 1995, Gaussian, Inc.),
 the Gaussian 92(TM) system (copyright 1992, Gaussian, Inc.),
 the Gaussian 90(TM) system (copyright 1990, Gaussian, Inc.),
 the Gaussian 88(TM) system (copyright 1988, Gaussian, Inc.),
 the Gaussian 86(TM) system (copyright 1986, Carnegie Mellon
 University), and the Gaussian 82(TM) system (copyright 1983,
 Carnegie Mellon University). Gaussian is a federally registered
 trademark of Gaussian, Inc.
  
 This software contains proprietary and confidential information,
 including trade secrets, belonging to Gaussian, Inc.
  
 This software is provided under written license and may be
 used, copied, transmitted, or stored only in accord with that
 written license.
  
 The following legend is applicable only to US Government
 contracts under FAR:
  
                    RESTRICTED RIGHTS LEGEND
  
 Use, reproduction and disclosure by the US Government is
 subject to restrictions as set forth in subparagraphs (a)
 and (c) of the Commercial Computer Software - Restricted
 Rights clause in FAR 52.227-19.
  
 Gaussian, Inc.
 340 Quinnipiac St., Bldg. 40, Wallingford CT 06492
  
  
 ---------------------------------------------------------------
 Warning -- This program may not be used in any manner that
 competes with the business of Gaussian, Inc. or will provide
 assistance to any competitor of Gaussian, Inc.  The licensee
 of this program is prohibited from giving any competitor of
 Gaussian, Inc. access to this program.  By using this program,
 the user acknowledges that Gaussian, Inc. is engaged in the
 business of creating and licensing software in the field of
 computational chemistry and represents and warrants to the
 licensee that it is not a competitor of Gaussian, Inc. and that
 it will not use this program in any manner prohibited above.
 ---------------------------------------------------------------
  

 Cite this work as:
 Gaussian 16, Revision C.01,
 M. J. Frisch, G. W. Trucks, H. B. Schlegel, G. E. Scuseria, 
 M. A. Robb, J. R. Cheeseman, G. Scalmani, V. Barone, 
 G. A. Petersson, H. Nakatsuji, X. Li, M. Caricato, A. V. Marenich, 
 J. Bloino, B. G. Janesko, R. Gomperts, B. Mennucci, H. P. Hratchian, 
 J. V. Ortiz, A. F. Izmaylov, J. L. Sonnenberg, D. Williams-Young, 
 F. Ding, F. Lipparini, F. Egidi, J. Goings, B. Peng, A. Petrone, 
 T. Henderson, D. Ranasinghe, V. G. Zakrzewski, J. Gao, N. Rega, 
 G. Zheng, W. Liang, M. Hada, M. Ehara, K. Toyota, R. Fukuda, 
 J. Hasegawa, M. Ishida, T. Nakajima, Y. Honda, O. Kitao, H. Nakai, 
 T. Vreven, K. Throssell, J. A. Montgomery, Jr., J. E. Peralta, 
 F. Ogliaro, M. J. Bearpark, J. J. Heyd, E. N. Brothers, K. N. Kudin, 
 V. N. Staroverov, T. A. Keith, R. Kobayashi, J. Normand, 
 K. Raghavachari, A. P. Rendell, J. C. Burant, S. S. Iyengar, 
 J. Tomasi, M. Cossi, J. M. Millam, M. Klene, C. Adamo, R. Cammi, 
 J. W. Ochterski, R. L. Martin, K. Morokuma, O. Farkas, 
 J. B. Foresman, and D. J. Fox, Gaussian, Inc., Wallingford CT, 2019.
 
 ******************************************
 Gaussian 16:  ES64L-G16RevC.01  3-Jul-2019
                 8-Feb-2023 
 ******************************************
 %nproc=4
 Will use up to    4 processors via shared memory.
 %mem=5760MB
 %chk=gaussian_137_water_wb97_ptz.chk
 ------------------------------------
 #P wB97XD/6-311g** scf(maxcycle=200)
 ------------------------------------
 1/38=1,172=1/1;
 2/12=2,17=6,18=5,40=1/2;
 3/5=4,6=6,7=101,11=2,25=1,30=1,74=-58/1,2,3;
 4//1;
 5/5=2,7=200,38=5/2;
 6/7=2,8=2,9=2,10=2,28=1/1;
 99/5=1,9=1/99;
 Leave Link    1 at Wed Feb  8 14:42:16 2023, MaxMem=   754974720 cpu:               0.2 elap:               0.1
 (Enter /opt/cluster/programs/g16-c.01/g16/l101.exe)
 --------------
 Gaussian input
 --------------
 Symbolic Z-matrix:
 Charge =  0 Multiplicity = 1
 O                     0.        0.11751   0. 
 H                     0.79736  -0.50079   0. 
 H                    -0.83196  -0.24872   0. 
 
 ITRead=  0  0  0
 MicOpt= -1 -1 -1
 NAtoms=      3 NQM=        3 NQMF=       0 NMMI=      0 NMMIF=      0
                NMic=       0 NMicF=      0.
                    Isotopes and Nuclear Properties:
 (Nuclear quadrupole moments (NQMom) in fm**2, nuclear magnetic moments (NMagM)
  in nuclear magnetons)

  Atom         1           2           3
 IAtWgt=          16           1           1
 AtmWgt=  15.9949146   1.0078250   1.0078250
 NucSpn=           0           1           1
 AtZEff=  -0.0000000  -0.0000000  -0.0000000
 NQMom=    0.0000000   0.0000000   0.0000000
 NMagM=    0.0000000   2.7928460   2.7928460
 AtZNuc=   8.0000000   1.0000000   1.0000000
 Leave Link  101 at Wed Feb  8 14:42:16 2023, MaxMem=   754974720 cpu:               0.4 elap:               0.2
 (Enter /opt/cluster/programs/g16-c.01/g16/l202.exe)
                          Input orientation:                          
 ---------------------------------------------------------------------
 Center     Atomic      Atomic             Coordinates (Angstroms)
 Number     Number       Type             X           Y           Z
 ---------------------------------------------------------------------
      1          8           0        0.000000    0.117510    0.000000
      2          1           0        0.797362   -0.500790    0.000000
      3          1           0       -0.831961   -0.248716    0.000000
 ---------------------------------------------------------------------
                    Distance matrix (angstroms):
                    1          2          3
     1  O    0.000000
     2  H    1.009000   0.000000
     3  H    0.909000   1.648708   0.000000
 Stoichiometry    H2O
 Framework group  CS[SG(H2O)]
 Deg. of freedom     3
 Full point group                 CS      NOp   2
 Largest Abelian subgroup         CS      NOp   2
 Largest concise Abelian subgroup C1      NOp   1
                         Standard orientation:                         
 ---------------------------------------------------------------------
 Center     Atomic      Atomic             Coordinates (Angstroms)
 Number     Number       Type             X           Y           Z
 ---------------------------------------------------------------------
      1          8           0        0.000000    0.098513   -0.000000
      2          1           0        0.818586   -0.491400    0.000000
      3          1           0       -0.818586   -0.296706   -0.000000
 ---------------------------------------------------------------------
 Rotational constants (GHZ):        1187.6631062         366.6046899         280.1337490
 Leave Link  202 at Wed Feb  8 14:42:16 2023, MaxMem=   754974720 cpu:               0.1 elap:               0.0
 (Enter /opt/cluster/programs/g16-c.01/g16/l301.exe)
 Standard basis: 6-311G(d,p) (5D, 7F)
 Ernie: Thresh=  0.10000D-02 Tol=  0.10000D-05 Strict=F.
 There are    24 symmetry adapted cartesian basis functions of A'  symmetry.
 There are     7 symmetry adapted cartesian basis functions of A"  symmetry.
 There are    23 symmetry adapted basis functions of A'  symmetry.
 There are     7 symmetry adapted basis functions of A"  symmetry.
    30 basis functions,    48 primitive gaussians,    31 cartesian basis functions
     5 alpha electrons        5 beta electrons
       nuclear repulsion energy         9.1738468181 Hartrees.
 IExCor= 4639 DFT=T Ex+Corr=wB97XD ExCW=0 ScaHFX=  1.000000
 ScaDFX=  1.000000  1.000000  1.000000  1.000000 ScalE2=  1.000000  1.000000
 IRadAn=      5 IRanWt=     -1 IRanGd=            0 ICorTp=0 IEmpDi=121
 HFx  wShort=  0.000000 wLong=  0.200000 cFull=  0.222036 cShort=  0.000000 cLong=  0.777964
 DFx  wShort=  0.000000 wLong=  0.200000 cFull=  0.000000 cShort=  0.000000 cLong=  1.000000
 NAtoms=    3 NActive=    3 NUniq=    3 SFac= 1.00D+00 NAtFMM=   60 NAOKFM=F Big=F
 Integral buffers will be    131072 words long.
 Raffenetti 2 integral format.
 Two-electron integral symmetry is turned on.
 R6Disp:  Grimme-D2 Dispersion energy=       -0.0000435470 Hartrees.
 Nuclear repulsion after empirical dispersion term =        9.1738032711 Hartrees.
 Leave Link  301 at Wed Feb  8 14:42:16 2023, MaxMem=   754974720 cpu:               0.1 elap:               0.1
 (Enter /opt/cluster/programs/g16-c.01/g16/l302.exe)
 NPDir=0 NMtPBC=     1 NCelOv=     1 NCel=       1 NClECP=     1 NCelD=      1
         NCelK=      1 NCelE2=     1 NClLst=     1 CellRange=     0.0.
 One-electron integrals computed using PRISM.
 One-electron integral symmetry used in STVInt
 NBasis=    30 RedAO= T EigKep=  2.00D-02  NBF=    23     7
 NBsUse=    30 1.00D-06 EigRej= -1.00D+00 NBFU=    23     7
 Precomputing XC quadrature grid using
 IXCGrd= 4 IRadAn=           5 IRanWt=          -1 IRanGd=           0 AccXCQ= 0.00D+00.
 Generated NRdTot=       0 NPtTot=           0 NUsed=           0 NTot=          32
 NSgBfM=    31    31    31    31    31 MxSgAt=     3 MxSgA2=     3.
 Leave Link  302 at Wed Feb  8 14:42:17 2023, MaxMem=   754974720 cpu:               0.9 elap:               0.3
 (Enter /opt/cluster/programs/g16-c.01/g16/l303.exe)
 DipDrv:  MaxL=1.
 Leave Link  303 at Wed Feb  8 14:42:17 2023, MaxMem=   754974720 cpu:               0.5 elap:               0.3
 (Enter /opt/cluster/programs/g16-c.01/g16/l401.exe)
 ExpMin= 1.03D-01 ExpMax= 8.59D+03 ExpMxC= 1.30D+03 IAcc=3 IRadAn=         5 AccDes= 0.00D+00
 Harris functional with IExCor= 4639 and IRadAn=       5 diagonalized for initial guess.
 HarFok:  IExCor= 4639 AccDes= 0.00D+00 IRadAn=         5 IDoV= 1 UseB2=F ITyADJ=14
 ICtDFT=  3500011 ScaDFX=  1.000000  1.000000  1.000000  1.000000
 FoFCou: FMM=F IPFlag=           0 FMFlag=      100000 FMFlg1=           0
         NFxFlg=           0 DoJE=T BraDBF=F KetDBF=T FulRan=T
         wScrn=  0.000000 ICntrl=       500 IOpCl=  0 I1Cent=   200000004 NGrid=           0
         NMat0=    1 NMatS0=      1 NMatT0=    0 NMatD0=    1 NMtDS0=    0 NMtDT0=    0
 Petite list used in FoFCou.
 Harris En= -73.6047511419401    
 JPrj=0 DoOrth=F DoCkMO=F.
 Initial guess orbital symmetries:
       Occupied  (A') (A') (A') (A') (A")
       Virtual   (A') (A') (A') (A') (A') (A") (A') (A') (A") (A')
                 (A") (A') (A') (A') (A') (A') (A") (A") (A') (A')
                 (A') (A") (A') (A') (A')
 The electronic state of the initial guess is 1-A'.
 Leave Link  401 at Wed Feb  8 14:42:17 2023, MaxMem=   754974720 cpu:               0.9 elap:               0.2
 (Enter /opt/cluster/programs/g16-c.01/g16/l502.exe)
 Keep R1 ints in memory in symmetry-blocked form, NReq=3688183.
 FoFCou: FMM=F IPFlag=           0 FMFlag=           0 FMFlg1=           0
         NFxFlg=           0 DoJE=F BraDBF=F KetDBF=F FulRan=T
         wScrn=  0.000000 ICntrl=       600 IOpCl=  0 I1Cent=           0 NGrid=           0
         NMat0=    1 NMatS0=    465 NMatT0=    0 NMatD0=    1 NMtDS0=    0 NMtDT0=    0
 Petite list used in FoFCou.
 Closed shell SCF:
 Using DIIS extrapolation, IDIIS=  1040.
 NGot=   754974720 LenX=   754911268 LenY=   754909866
 Requested convergence on RMS density matrix=1.00D-08 within 200 cycles.
 Requested convergence on MAX density matrix=1.00D-06.
 Requested convergence on             energy=1.00D-06.
 No special actions if energy rises.
 Integral accuracy reduced to 1.0D-05 until final iterations.

 Cycle   1  Pass 0  IDiag  1:
 E= -76.4036750612719    
 DIIS: error= 8.35D-02 at cycle   1 NSaved=   1.
 NSaved= 1 IEnMin= 1 EnMin= -76.4036750612719     IErMin= 1 ErrMin= 8.35D-02
 ErrMax= 8.35D-02  0.00D+00 EMaxC= 1.00D-01 BMatC= 1.29D-01 BMatP= 1.29D-01
 IDIUse=3 WtCom= 1.65D-01 WtEn= 8.35D-01
 Coeff-Com:  0.100D+01
 Coeff-En:   0.100D+01
 Coeff:      0.100D+01
 Gap=     0.486 Goal=   None    Shift=    0.000
 GapD=    0.486 DampG=2.000 DampE=0.500 DampFc=1.0000 IDamp=-1.
 RMSDP=2.34D-03 MaxDP=1.98D-02              OVMax= 3.63D-02

 Cycle   2  Pass 0  IDiag  1:
 E= -76.4131807764785     Delta-E=       -0.009505715207 Rises=F Damp=F
 DIIS: error= 6.50D-03 at cycle   2 NSaved=   2.
 NSaved= 2 IEnMin= 2 EnMin= -76.4131807764785     IErMin= 2 ErrMin= 6.50D-03
 ErrMax= 6.50D-03  0.00D+00 EMaxC= 1.00D-01 BMatC= 8.97D-04 BMatP= 1.29D-01
 IDIUse=3 WtCom= 9.35D-01 WtEn= 6.50D-02
 Coeff-Com:  0.414D-01 0.959D+00
 Coeff-En:   0.000D+00 0.100D+01
 Coeff:      0.387D-01 0.961D+00
 Gap=     0.509 Goal=   None    Shift=    0.000
 RMSDP=7.54D-04 MaxDP=9.84D-03 DE=-9.51D-03 OVMax= 9.36D-03

 Cycle   3  Pass 0  IDiag  1:
 E= -76.4133706134966     Delta-E=       -0.000189837018 Rises=F Damp=F
 DIIS: error= 4.99D-03 at cycle   3 NSaved=   3.
 NSaved= 3 IEnMin= 3 EnMin= -76.4133706134966     IErMin= 3 ErrMin= 4.99D-03
 ErrMax= 4.99D-03  0.00D+00 EMaxC= 1.00D-01 BMatC= 5.26D-04 BMatP= 8.97D-04
 IDIUse=3 WtCom= 9.50D-01 WtEn= 4.99D-02
 Coeff-Com:  0.202D-01 0.450D+00 0.530D+00
 Coeff-En:   0.000D+00 0.362D+00 0.638D+00
 Coeff:      0.192D-01 0.445D+00 0.535D+00
 Gap=     0.500 Goal=   None    Shift=    0.000
 RMSDP=3.56D-04 MaxDP=4.09D-03 DE=-1.90D-04 OVMax= 5.04D-03

 Cycle   4  Pass 0  IDiag  1:
 E= -76.4136852900264     Delta-E=       -0.000314676530 Rises=F Damp=F
 DIIS: error= 6.18D-04 at cycle   4 NSaved=   4.
 NSaved= 4 IEnMin= 4 EnMin= -76.4136852900264     IErMin= 4 ErrMin= 6.18D-04
 ErrMax= 6.18D-04  0.00D+00 EMaxC= 1.00D-01 BMatC= 7.21D-06 BMatP= 5.26D-04
 IDIUse=3 WtCom= 9.94D-01 WtEn= 6.18D-03
 Coeff-Com:  0.181D-02 0.522D-01 0.132D+00 0.814D+00
 Coeff-En:   0.000D+00 0.000D+00 0.000D+00 0.100D+01
 Coeff:      0.180D-02 0.519D-01 0.131D+00 0.815D+00
 Gap=     0.501 Goal=   None    Shift=    0.000
 RMSDP=5.39D-05 MaxDP=6.69D-04 DE=-3.15D-04 OVMax= 5.44D-04

 Cycle   5  Pass 0  IDiag  1:
 E= -76.4136899595036     Delta-E=       -0.000004669477 Rises=F Damp=F
 DIIS: error= 6.72D-05 at cycle   5 NSaved=   5.
 NSaved= 5 IEnMin= 5 EnMin= -76.4136899595036     IErMin= 5 ErrMin= 6.72D-05
 ErrMax= 6.72D-05  0.00D+00 EMaxC= 1.00D-01 BMatC= 8.49D-08 BMatP= 7.21D-06
 IDIUse=1 WtCom= 1.00D+00 WtEn= 0.00D+00
 Coeff-Com: -0.768D-03-0.202D-01-0.250D-01-0.447D-01 0.109D+01
 Coeff:     -0.768D-03-0.202D-01-0.250D-01-0.447D-01 0.109D+01
 Gap=     0.501 Goal=   None    Shift=    0.000
 RMSDP=2.29D-05 MaxDP=2.21D-04 DE=-4.67D-06 OVMax= 3.37D-04

 Cycle   6  Pass 0  IDiag  1:
 E= -76.4136901554044     Delta-E=       -0.000000195901 Rises=F Damp=F
 DIIS: error= 1.22D-05 at cycle   6 NSaved=   6.
 NSaved= 6 IEnMin= 6 EnMin= -76.4136901554044     IErMin= 6 ErrMin= 1.22D-05
 ErrMax= 1.22D-05  0.00D+00 EMaxC= 1.00D-01 BMatC= 4.69D-09 BMatP= 8.49D-08
 IDIUse=1 WtCom= 1.00D+00 WtEn= 0.00D+00
 Coeff-Com:  0.450D-04 0.728D-03 0.117D-02-0.176D-01-0.882D-01 0.110D+01
 Coeff:      0.450D-04 0.728D-03 0.117D-02-0.176D-01-0.882D-01 0.110D+01
 Gap=     0.501 Goal=   None    Shift=    0.000
 RMSDP=5.14D-06 MaxDP=5.53D-05 DE=-1.96D-07 OVMax= 8.25D-05

 Initial convergence to 1.0D-05 achieved.  Increase integral accuracy.
 Cycle   7  Pass 1  IDiag  1:
 E= -76.4136917129704     Delta-E=       -0.000001557566 Rises=F Damp=F
 DIIS: error= 1.56D-05 at cycle   1 NSaved=   1.
 NSaved= 1 IEnMin= 1 EnMin= -76.4136917129704     IErMin= 1 ErrMin= 1.56D-05
 ErrMax= 1.56D-05  0.00D+00 EMaxC= 1.00D-01 BMatC= 5.37D-09 BMatP= 5.37D-09
 IDIUse=1 WtCom= 1.00D+00 WtEn= 0.00D+00
 Coeff-Com:  0.100D+01
 Coeff:      0.100D+01
 Gap=     0.501 Goal=   None    Shift=    0.000
 RMSDP=5.14D-06 MaxDP=5.53D-05 DE=-1.56D-06 OVMax= 1.83D-05

 Cycle   8  Pass 1  IDiag  1:
 E= -76.4136917167300     Delta-E=       -0.000000003760 Rises=F Damp=F
 DIIS: error= 2.12D-06 at cycle   2 NSaved=   2.
 NSaved= 2 IEnMin= 2 EnMin= -76.4136917167300     IErMin= 2 ErrMin= 2.12D-06
 ErrMax= 2.12D-06  0.00D+00 EMaxC= 1.00D-01 BMatC= 1.74D-10 BMatP= 5.37D-09
 IDIUse=1 WtCom= 1.00D+00 WtEn= 0.00D+00
 Coeff-Com: -0.213D-01 0.102D+01
 Coeff:     -0.213D-01 0.102D+01
 Gap=     0.501 Goal=   None    Shift=    0.000
 RMSDP=5.93D-07 MaxDP=6.10D-06 DE=-3.76D-09 OVMax= 1.02D-05

 Cycle   9  Pass 1  IDiag  1:
 E= -76.4136917168351     Delta-E=       -0.000000000105 Rises=F Damp=F
 DIIS: error= 2.79D-06 at cycle   3 NSaved=   3.
 NSaved= 3 IEnMin= 3 EnMin= -76.4136917168351     IErMin= 2 ErrMin= 2.12D-06
 ErrMax= 2.79D-06  0.00D+00 EMaxC= 1.00D-01 BMatC= 1.57D-10 BMatP= 1.74D-10
 IDIUse=1 WtCom= 1.00D+00 WtEn= 0.00D+00
 Coeff-Com: -0.442D-01 0.513D+00 0.531D+00
 Coeff:     -0.442D-01 0.513D+00 0.531D+00
 Gap=     0.501 Goal=   None    Shift=    0.000
 RMSDP=1.76D-07 MaxDP=2.42D-06 DE=-1.05D-10 OVMax= 2.72D-06

 Cycle  10  Pass 1  IDiag  1:
 E= -76.4136917169335     Delta-E=       -0.000000000098 Rises=F Damp=F
 DIIS: error= 2.14D-07 at cycle   4 NSaved=   4.
 NSaved= 4 IEnMin= 4 EnMin= -76.4136917169335     IErMin= 4 ErrMin= 2.14D-07
 ErrMax= 2.14D-07  0.00D+00 EMaxC= 1.00D-01 BMatC= 1.15D-12 BMatP= 1.57D-10
 IDIUse=1 WtCom= 1.00D+00 WtEn= 0.00D+00
 Coeff-Com: -0.165D-02-0.505D-01-0.258D-01 0.108D+01
 Coeff:     -0.165D-02-0.505D-01-0.258D-01 0.108D+01
 Gap=     0.501 Goal=   None    Shift=    0.000
 RMSDP=9.02D-08 MaxDP=8.95D-07 DE=-9.84D-11 OVMax= 1.82D-06

 Cycle  11  Pass 1  IDiag  1:
 E= -76.4136917169381     Delta-E=       -0.000000000005 Rises=F Damp=F
 DIIS: error= 5.53D-08 at cycle   5 NSaved=   5.
 NSaved= 5 IEnMin= 5 EnMin= -76.4136917169381     IErMin= 5 ErrMin= 5.53D-08
 ErrMax= 5.53D-08  0.00D+00 EMaxC= 1.00D-01 BMatC= 1.10D-13 BMatP= 1.15D-12
 IDIUse=1 WtCom= 1.00D+00 WtEn= 0.00D+00
 Coeff-Com:  0.271D-02-0.228D-01-0.379D-01-0.179D+00 0.124D+01
 Coeff:      0.271D-02-0.228D-01-0.379D-01-0.179D+00 0.124D+01
 Gap=     0.501 Goal=   None    Shift=    0.000
 RMSDP=3.48D-08 MaxDP=3.37D-07 DE=-4.58D-12 OVMax= 6.97D-07

 Cycle  12  Pass 1  IDiag  1:
 E= -76.4136917169385     Delta-E=       -0.000000000000 Rises=F Damp=F
 DIIS: error= 7.83D-09 at cycle   6 NSaved=   6.
 NSaved= 6 IEnMin= 6 EnMin= -76.4136917169385     IErMin= 6 ErrMin= 7.83D-09
 ErrMax= 7.83D-09  0.00D+00 EMaxC= 1.00D-01 BMatC= 2.02D-15 BMatP= 1.10D-13
 IDIUse=1 WtCom= 1.00D+00 WtEn= 0.00D+00
 Coeff-Com:  0.211D-03 0.116D-02-0.150D-02-0.568D-01 0.115D+00 0.942D+00
 Coeff:      0.211D-03 0.116D-02-0.150D-02-0.568D-01 0.115D+00 0.942D+00
 Gap=     0.501 Goal=   None    Shift=    0.000
 RMSDP=2.86D-09 MaxDP=3.21D-08 DE=-4.55D-13 OVMax= 5.27D-08

 SCF Done:  E(RwB97XD) =  -76.4136917169     A.U. after   12 cycles
            NFock= 12  Conv=0.29D-08     -V/T= 2.0016
 KE= 7.628843035393D+01 PE=-1.995238397670D+02 EE= 3.764791442508D+01
 Leave Link  502 at Wed Feb  8 14:42:24 2023, MaxMem=   754974720 cpu:              12.4 elap:               6.3
 (Enter /opt/cluster/programs/g16-c.01/g16/l601.exe)
 Copying SCF densities to generalized density rwf, IOpCl= 0 IROHF=0.

 **********************************************************************

            Population analysis using the SCF Density.

 **********************************************************************

 Orbital symmetries:
       Occupied  (A') (A') (A') (A') (A")
       Virtual   (A') (A') (A') (A') (A') (A") (A') (A') (A") (A')
                 (A") (A') (A') (A') (A') (A') (A") (A") (A') (A')
                 (A') (A") (A') (A') (A')
 The electronic state is 1-A'.
 Alpha  occ. eigenvalues --  -19.21750  -1.09395  -0.63171  -0.43561  -0.38214
 Alpha virt. eigenvalues --    0.11866   0.19336   0.45052   0.51311   0.85056
 Alpha virt. eigenvalues --    0.85700   0.94541   1.15140   1.31669   1.52036
 Alpha virt. eigenvalues --    1.61441   1.65375   2.05245   2.12886   2.47462
 Alpha virt. eigenvalues --    2.53302   3.12054   3.31411   3.32422   3.78855
 Alpha virt. eigenvalues --    3.88443   4.88887   5.19823   5.84014  50.01055
          Condensed to atoms (all electrons):
               1          2          3
     1  O    7.875578   0.321172   0.341946
     2  H    0.321172   0.437922  -0.029299
     3  H    0.341946  -0.029299   0.418863
 Mulliken charges:
               1
     1  O   -0.538696
     2  H    0.270205
     3  H    0.268491
 Sum of Mulliken charges =   0.00000
 Mulliken charges with hydrogens summed into heavy atoms:
               1
     1  O    0.000000
 Electronic spatial extent (au):  <R**2>=             19.0077
 Charge=              0.0000 electrons
 Dipole moment (field-independent basis, Debye):
    X=             -0.0711    Y=             -1.8761    Z=              0.0000  Tot=              1.8774
 Quadrupole moment (field-independent basis, Debye-Ang):
   XX=             -3.6507   YY=             -6.3388   ZZ=             -7.1837
   XY=             -0.3644   XZ=              0.0000   YZ=             -0.0000
 Traceless Quadrupole moment (field-independent basis, Debye-Ang):
   XX=              2.0737   YY=             -0.6144   ZZ=             -1.4593
   XY=             -0.3644   XZ=              0.0000   YZ=             -0.0000
 Octapole moment (field-independent basis, Debye-Ang**2):
  XXX=             -0.1657  YYY=             -1.0542  ZZZ=              0.0000  XYY=              0.1755
  XXY=             -1.2736  XXZ=              0.0000  XZZ=             -0.0703  YZZ=             -0.2853
  YYZ=              0.0000  XYZ=             -0.0000
 Hexadecapole moment (field-independent basis, Debye-Ang**3):
 XXXX=             -5.3124 YYYY=             -6.0835 ZZZZ=             -5.2719 XXXY=             -0.0423
 XXXZ=             -0.0000 YYYX=              0.0437 YYYZ=              0.0000 ZZZX=             -0.0000
 ZZZY=              0.0000 XXYY=             -1.7427 XXZZ=             -2.1679 YYZZ=             -1.9277
 XXYZ=             -0.0000 YYXZ=             -0.0000 ZZXY=              0.0803
 N-N= 9.173803271069D+00 E-N=-1.995238397261D+02  KE= 7.628843035393D+01
 Symmetry A'   KE= 7.166663346959D+01
 Symmetry A"   KE= 4.621796884337D+00
 No NMR shielding tensors so no spin-rotation constants.
 Leave Link  601 at Wed Feb  8 14:42:24 2023, MaxMem=   754974720 cpu:               1.0 elap:               0.4
 (Enter /opt/cluster/programs/g16-c.01/g16/l9999.exe)
 Unable to Open any file for archive entry.
 1\1\GINC-NODE64\SP\RwB97XD\6-311G(d,p)\H2O1\BOITTIER\08-Feb-2023\0\\#P
  wB97XD/6-311g** scf(maxcycle=200)\\Gaussian input\\0,1\O,0,0.,0.11751
 ,0.\H,0,0.7973622306,-0.5007896629,0.\H,0,-0.8319613931,-0.2487156687,
 0.\\Version=ES64L-G16RevC.01\State=1-A'\HF=-76.4136917\RMSD=2.856e-09\
 Dipole=-0.0538704,-0.7366778,0.\Quadrupole=1.5202441,-0.4352931,-1.084
 9511,-0.3403965,0.,0.\PG=CS [SG(H2O1)]\\@
 The archive entry for this job was punched.


 I KNOW YOU BELIEVE YOU UNDERSTAND WHAT YOU THINK I SAID,
 BUT I AM NOT SURE YOU REALIZE THAT WHAT YOU HEARD IS NOT WHAT I MEANT.
 Job cpu time:       0 days  0 hours  0 minutes 16.7 seconds.
 Elapsed time:       0 days  0 hours  0 minutes  7.8 seconds.
 File lengths (MBytes):  RWF=      6 Int=      0 D2E=      0 Chk=      1 Scr=      1
 Normal termination of Gaussian 16 at Wed Feb  8 14:42:24 2023.
