 Entering Gaussian System, Link 0=/opt/cluster/programs/g16-c.01/g16/g16
 Input=/scratch/boittier/jobs/tmp.7262613/gaussian_88_water_hf_pdz.com
 Output=/scratch/boittier/jobs/tmp.7262613/gaussian_88_water_hf_pdz.out
 Initial command:
 /opt/cluster/programs/g16-c.01/g16/l1.exe "/scratch/boittier/jobs/tmp.7262613/Gau-49661.inp" -scrdir="/scratch/boittier/jobs/tmp.7262613/"
 Entering Link 1 = /opt/cluster/programs/g16-c.01/g16/l1.exe PID=     49662.
  
 Copyright (c) 1988-2019, Gaussian, Inc.  All Rights Reserved.
  
 This is part of the Gaussian(R) 16 program.  It is based on
 the Gaussian(R) 09 system (copyright 2009, Gaussian, Inc.),
 the Gaussian(R) 03 system (copyright 2003, Gaussian, Inc.),
 the Gaussian(R) 98 system (copyright 1998, Gaussian, Inc.),
 the Gaussian(R) 94 system (copyright 1995, Gaussian, Inc.),
 the Gaussian 92(TM) system (copyright 1992, Gaussian, Inc.),
 the Gaussian 90(TM) system (copyright 1990, Gaussian, Inc.),
 the Gaussian 88(TM) system (copyright 1988, Gaussian, Inc.),
 the Gaussian 86(TM) system (copyright 1986, Carnegie Mellon
 University), and the Gaussian 82(TM) system (copyright 1983,
 Carnegie Mellon University). Gaussian is a federally registered
 trademark of Gaussian, Inc.
  
 This software contains proprietary and confidential information,
 including trade secrets, belonging to Gaussian, Inc.
  
 This software is provided under written license and may be
 used, copied, transmitted, or stored only in accord with that
 written license.
  
 The following legend is applicable only to US Government
 contracts under FAR:
  
                    RESTRICTED RIGHTS LEGEND
  
 Use, reproduction and disclosure by the US Government is
 subject to restrictions as set forth in subparagraphs (a)
 and (c) of the Commercial Computer Software - Restricted
 Rights clause in FAR 52.227-19.
  
 Gaussian, Inc.
 340 Quinnipiac St., Bldg. 40, Wallingford CT 06492
  
  
 ---------------------------------------------------------------
 Warning -- This program may not be used in any manner that
 competes with the business of Gaussian, Inc. or will provide
 assistance to any competitor of Gaussian, Inc.  The licensee
 of this program is prohibited from giving any competitor of
 Gaussian, Inc. access to this program.  By using this program,
 the user acknowledges that Gaussian, Inc. is engaged in the
 business of creating and licensing software in the field of
 computational chemistry and represents and warrants to the
 licensee that it is not a competitor of Gaussian, Inc. and that
 it will not use this program in any manner prohibited above.
 ---------------------------------------------------------------
  

 Cite this work as:
 Gaussian 16, Revision C.01,
 M. J. Frisch, G. W. Trucks, H. B. Schlegel, G. E. Scuseria, 
 M. A. Robb, J. R. Cheeseman, G. Scalmani, V. Barone, 
 G. A. Petersson, H. Nakatsuji, X. Li, M. Caricato, A. V. Marenich, 
 J. Bloino, B. G. Janesko, R. Gomperts, B. Mennucci, H. P. Hratchian, 
 J. V. Ortiz, A. F. Izmaylov, J. L. Sonnenberg, D. Williams-Young, 
 F. Ding, F. Lipparini, F. Egidi, J. Goings, B. Peng, A. Petrone, 
 T. Henderson, D. Ranasinghe, V. G. Zakrzewski, J. Gao, N. Rega, 
 G. Zheng, W. Liang, M. Hada, M. Ehara, K. Toyota, R. Fukuda, 
 J. Hasegawa, M. Ishida, T. Nakajima, Y. Honda, O. Kitao, H. Nakai, 
 T. Vreven, K. Throssell, J. A. Montgomery, Jr., J. E. Peralta, 
 F. Ogliaro, M. J. Bearpark, J. J. Heyd, E. N. Brothers, K. N. Kudin, 
 V. N. Staroverov, T. A. Keith, R. Kobayashi, J. Normand, 
 K. Raghavachari, A. P. Rendell, J. C. Burant, S. S. Iyengar, 
 J. Tomasi, M. Cossi, J. M. Millam, M. Klene, C. Adamo, R. Cammi, 
 J. W. Ochterski, R. L. Martin, K. Morokuma, O. Farkas, 
 J. B. Foresman, and D. J. Fox, Gaussian, Inc., Wallingford CT, 2019.
 
 ******************************************
 Gaussian 16:  ES64L-G16RevC.01  3-Jul-2019
                 8-Feb-2023 
 ******************************************
 %nproc=4
 Will use up to    4 processors via shared memory.
 %mem=5760MB
 %chk=gaussian_88_water_hf_pdz.chk
 ------------------------------
 #P HF/6-31g* scf(maxcycle=200)
 ------------------------------
 1/38=1,172=1/1;
 2/12=2,17=6,18=5,40=1/2;
 3/5=1,6=6,7=1,11=9,25=1,30=1/1,2,3;
 4//1;
 5/5=2,7=200,38=5/2;
 6/7=2,8=2,9=2,10=2,28=1/1;
 99/5=1,9=1/99;
 Leave Link    1 at Wed Feb  8 15:06:09 2023, MaxMem=   754974720 cpu:               0.2 elap:               0.1
 (Enter /opt/cluster/programs/g16-c.01/g16/l101.exe)
 --------------
 Gaussian input
 --------------
 Symbolic Z-matrix:
 Charge =  0 Multiplicity = 1
 O                     0.        0.11751   0. 
 H                     0.75785  -0.47015   0. 
 H                    -0.71537  -0.52118   0. 
 
 ITRead=  0  0  0
 MicOpt= -1 -1 -1
 NAtoms=      3 NQM=        3 NQMF=       0 NMMI=      0 NMMIF=      0
                NMic=       0 NMicF=      0.
                    Isotopes and Nuclear Properties:
 (Nuclear quadrupole moments (NQMom) in fm**2, nuclear magnetic moments (NMagM)
  in nuclear magnetons)

  Atom         1           2           3
 IAtWgt=          16           1           1
 AtmWgt=  15.9949146   1.0078250   1.0078250
 NucSpn=           0           1           1
 AtZEff=  -0.0000000  -0.0000000  -0.0000000
 NQMom=    0.0000000   0.0000000   0.0000000
 NMagM=    0.0000000   2.7928460   2.7928460
 AtZNuc=   8.0000000   1.0000000   1.0000000
 Leave Link  101 at Wed Feb  8 15:06:10 2023, MaxMem=   754974720 cpu:               0.5 elap:               0.2
 (Enter /opt/cluster/programs/g16-c.01/g16/l202.exe)
                          Input orientation:                          
 ---------------------------------------------------------------------
 Center     Atomic      Atomic             Coordinates (Angstroms)
 Number     Number       Type             X           Y           Z
 ---------------------------------------------------------------------
      1          8           0        0.000000    0.117510    0.000000
      2          1           0        0.757850   -0.470150    0.000000
      3          1           0       -0.715370   -0.521181    0.000000
 ---------------------------------------------------------------------
                    Distance matrix (angstroms):
                    1          2          3
     1  O    0.000000
     2  H    0.959000   0.000000
     3  H    0.959000   1.474103   0.000000
 Stoichiometry    H2O
 Framework group  C2V[C2(O),SGV(H2)]
 Deg. of freedom     2
 Full point group                 C2V     NOp   4
 Largest Abelian subgroup         C2V     NOp   4
 Largest concise Abelian subgroup C2      NOp   2
                         Standard orientation:                         
 ---------------------------------------------------------------------
 Center     Atomic      Atomic             Coordinates (Angstroms)
 Number     Number       Type             X           Y           Z
 ---------------------------------------------------------------------
      1          8           0        0.000000    0.000000    0.122709
      2          1           0       -0.000000    0.737052   -0.490835
      3          1           0       -0.000000   -0.737052   -0.490835
 ---------------------------------------------------------------------
 Rotational constants (GHZ):         749.9918046         461.5366379         285.7123975
 Leave Link  202 at Wed Feb  8 15:06:10 2023, MaxMem=   754974720 cpu:               0.0 elap:               0.0
 (Enter /opt/cluster/programs/g16-c.01/g16/l301.exe)
 Standard basis: 6-31G(d) (6D, 7F)
 Ernie: Thresh=  0.10000D-02 Tol=  0.10000D-05 Strict=F.
 There are    10 symmetry adapted cartesian basis functions of A1  symmetry.
 There are     1 symmetry adapted cartesian basis functions of A2  symmetry.
 There are     3 symmetry adapted cartesian basis functions of B1  symmetry.
 There are     5 symmetry adapted cartesian basis functions of B2  symmetry.
 There are    10 symmetry adapted basis functions of A1  symmetry.
 There are     1 symmetry adapted basis functions of A2  symmetry.
 There are     3 symmetry adapted basis functions of B1  symmetry.
 There are     5 symmetry adapted basis functions of B2  symmetry.
    19 basis functions,    36 primitive gaussians,    19 cartesian basis functions
     5 alpha electrons        5 beta electrons
       nuclear repulsion energy         9.1877993003 Hartrees.
 IExCor=    0 DFT=F Ex=HF Corr=None ExCW=0 ScaHFX=  1.000000
 ScaDFX=  1.000000  1.000000  1.000000  1.000000 ScalE2=  1.000000  1.000000
 IRadAn=      5 IRanWt=     -1 IRanGd=            0 ICorTp=0 IEmpDi=  4
 NAtoms=    3 NActive=    3 NUniq=    2 SFac= 2.25D+00 NAtFMM=   60 NAOKFM=F Big=F
 Integral buffers will be    131072 words long.
 Raffenetti 1 integral format.
 Two-electron integral symmetry is turned on.
 Leave Link  301 at Wed Feb  8 15:06:10 2023, MaxMem=   754974720 cpu:               0.1 elap:               0.1
 (Enter /opt/cluster/programs/g16-c.01/g16/l302.exe)
 NPDir=0 NMtPBC=     1 NCelOv=     1 NCel=       1 NClECP=     1 NCelD=      1
         NCelK=      1 NCelE2=     1 NClLst=     1 CellRange=     0.0.
 One-electron integrals computed using PRISM.
 One-electron integral symmetry used in STVInt
 NBasis=    19 RedAO= T EigKep=  2.23D-02  NBF=    10     1     3     5
 NBsUse=    19 1.00D-06 EigRej= -1.00D+00 NBFU=    10     1     3     5
 Leave Link  302 at Wed Feb  8 15:06:10 2023, MaxMem=   754974720 cpu:               0.4 elap:               0.1
 (Enter /opt/cluster/programs/g16-c.01/g16/l303.exe)
 DipDrv:  MaxL=1.
 Leave Link  303 at Wed Feb  8 15:06:10 2023, MaxMem=   754974720 cpu:               0.3 elap:               0.1
 (Enter /opt/cluster/programs/g16-c.01/g16/l401.exe)
 ExpMin= 1.61D-01 ExpMax= 5.48D+03 ExpMxC= 8.25D+02 IAcc=3 IRadAn=         5 AccDes= 0.00D+00
 Harris functional with IExCor=  205 and IRadAn=       5 diagonalized for initial guess.
 HarFok:  IExCor=  205 AccDes= 0.00D+00 IRadAn=         5 IDoV= 1 UseB2=F ITyADJ=14
 ICtDFT=  3500011 ScaDFX=  1.000000  1.000000  1.000000  1.000000
 FoFCou: FMM=F IPFlag=           0 FMFlag=      100000 FMFlg1=           0
         NFxFlg=           0 DoJE=T BraDBF=F KetDBF=T FulRan=T
         wScrn=  0.000000 ICntrl=       500 IOpCl=  0 I1Cent=   200000004 NGrid=           0
         NMat0=    1 NMatS0=      1 NMatT0=    0 NMatD0=    1 NMtDS0=    0 NMtDT0=    0
 Petite list used in FoFCou.
 Harris En= -76.1013703860907    
 JPrj=0 DoOrth=F DoCkMO=F.
 Initial guess orbital symmetries:
       Occupied  (A1) (A1) (B2) (A1) (B1)
       Virtual   (A1) (B2) (B2) (A1) (B1) (A1) (B2) (A1) (A1) (A2)
                 (B1) (A1) (B2) (A1)
 The electronic state of the initial guess is 1-A1.
 Leave Link  401 at Wed Feb  8 15:06:10 2023, MaxMem=   754974720 cpu:               0.6 elap:               0.1
 (Enter /opt/cluster/programs/g16-c.01/g16/l502.exe)
 Keep R1 ints in memory in symmetry-blocked form, NReq=845815.
 FoFCou: FMM=F IPFlag=           0 FMFlag=           0 FMFlg1=           0
         NFxFlg=           0 DoJE=F BraDBF=F KetDBF=F FulRan=T
         wScrn=  0.000000 ICntrl=       600 IOpCl=  0 I1Cent=           0 NGrid=           0
         NMat0=    1 NMatS0=    190 NMatT0=    0 NMatD0=    1 NMtDS0=    0 NMtDT0=    0
 Petite list used in FoFCou.
 Closed shell SCF:
 Using DIIS extrapolation, IDIIS=  1040.
 NGot=   754974720 LenX=   754966727 LenY=   754965845
 Requested convergence on RMS density matrix=1.00D-08 within 200 cycles.
 Requested convergence on MAX density matrix=1.00D-06.
 Requested convergence on             energy=1.00D-06.
 No special actions if energy rises.

 Cycle   1  Pass 1  IDiag  1:
 E= -75.9265223544393    
 DIIS: error= 7.78D-02 at cycle   1 NSaved=   1.
 NSaved= 1 IEnMin= 1 EnMin= -75.9265223544393     IErMin= 1 ErrMin= 7.78D-02
 ErrMax= 7.78D-02  0.00D+00 EMaxC= 1.00D-01 BMatC= 1.33D-01 BMatP= 1.33D-01
 IDIUse=3 WtCom= 2.22D-01 WtEn= 7.78D-01
 Coeff-Com:  0.100D+01
 Coeff-En:   0.100D+01
 Coeff:      0.100D+01
 Gap=     0.587 Goal=   None    Shift=    0.000
 GapD=    0.587 DampG=2.000 DampE=0.500 DampFc=1.0000 IDamp=-1.
 RMSDP=1.55D-02 MaxDP=1.20D-01              OVMax= 1.28D-01

 Cycle   2  Pass 1  IDiag  1:
 E= -75.9828427389852     Delta-E=       -0.056320384546 Rises=F Damp=F
 DIIS: error= 5.15D-02 at cycle   2 NSaved=   2.
 NSaved= 2 IEnMin= 2 EnMin= -75.9828427389852     IErMin= 2 ErrMin= 5.15D-02
 ErrMax= 5.15D-02  0.00D+00 EMaxC= 1.00D-01 BMatC= 4.11D-02 BMatP= 1.33D-01
 IDIUse=3 WtCom= 4.85D-01 WtEn= 5.15D-01
 Coeff-Com:  0.339D+00 0.661D+00
 Coeff-En:   0.973D-01 0.903D+00
 Coeff:      0.214D+00 0.786D+00
 Gap=     0.732 Goal=   None    Shift=    0.000
 RMSDP=7.71D-03 MaxDP=5.90D-02 DE=-5.63D-02 OVMax= 4.98D-02

 Cycle   3  Pass 1  IDiag  1:
 E= -76.0080210386739     Delta-E=       -0.025178299689 Rises=F Damp=F
 DIIS: error= 1.24D-02 at cycle   3 NSaved=   3.
 NSaved= 3 IEnMin= 3 EnMin= -76.0080210386739     IErMin= 3 ErrMin= 1.24D-02
 ErrMax= 1.24D-02  0.00D+00 EMaxC= 1.00D-01 BMatC= 2.45D-03 BMatP= 4.11D-02
 IDIUse=3 WtCom= 8.76D-01 WtEn= 1.24D-01
 Coeff-Com: -0.263D-01 0.169D+00 0.857D+00
 Coeff-En:   0.000D+00 0.000D+00 0.100D+01
 Coeff:     -0.230D-01 0.148D+00 0.875D+00
 Gap=     0.705 Goal=   None    Shift=    0.000
 RMSDP=1.54D-03 MaxDP=1.24D-02 DE=-2.52D-02 OVMax= 1.35D-02

 Cycle   4  Pass 1  IDiag  1:
 E= -76.0097866825437     Delta-E=       -0.001765643870 Rises=F Damp=F
 DIIS: error= 1.62D-03 at cycle   4 NSaved=   4.
 NSaved= 4 IEnMin= 4 EnMin= -76.0097866825437     IErMin= 4 ErrMin= 1.62D-03
 ErrMax= 1.62D-03  0.00D+00 EMaxC= 1.00D-01 BMatC= 2.55D-05 BMatP= 2.45D-03
 IDIUse=3 WtCom= 9.84D-01 WtEn= 1.62D-02
 Coeff-Com:  0.607D-02-0.777D-01-0.238D+00 0.131D+01
 Coeff-En:   0.000D+00 0.000D+00 0.000D+00 0.100D+01
 Coeff:      0.598D-02-0.764D-01-0.234D+00 0.130D+01
 Gap=     0.709 Goal=   None    Shift=    0.000
 RMSDP=2.22D-04 MaxDP=2.16D-03 DE=-1.77D-03 OVMax= 1.76D-03

 Cycle   5  Pass 1  IDiag  1:
 E= -76.0098094272251     Delta-E=       -0.000022744681 Rises=F Damp=F
 DIIS: error= 1.52D-04 at cycle   5 NSaved=   5.
 NSaved= 5 IEnMin= 5 EnMin= -76.0098094272251     IErMin= 5 ErrMin= 1.52D-04
 ErrMax= 1.52D-04  0.00D+00 EMaxC= 1.00D-01 BMatC= 1.62D-07 BMatP= 2.55D-05
 IDIUse=3 WtCom= 9.98D-01 WtEn= 1.52D-03
 Coeff-Com: -0.106D-03 0.744D-02 0.143D-01-0.221D+00 0.120D+01
 Coeff-En:   0.000D+00 0.000D+00 0.000D+00 0.000D+00 0.100D+01
 Coeff:     -0.106D-03 0.743D-02 0.143D-01-0.220D+00 0.120D+01
 Gap=     0.709 Goal=   None    Shift=    0.000
 RMSDP=4.11D-05 MaxDP=2.92D-04 DE=-2.27D-05 OVMax= 3.49D-04

 Cycle   6  Pass 1  IDiag  1:
 E= -76.0098098130501     Delta-E=       -0.000000385825 Rises=F Damp=F
 DIIS: error= 2.60D-05 at cycle   6 NSaved=   6.
 NSaved= 6 IEnMin= 6 EnMin= -76.0098098130501     IErMin= 6 ErrMin= 2.60D-05
 ErrMax= 2.60D-05  0.00D+00 EMaxC= 1.00D-01 BMatC= 6.03D-09 BMatP= 1.62D-07
 IDIUse=1 WtCom= 1.00D+00 WtEn= 0.00D+00
 Coeff-Com: -0.216D-03 0.164D-02 0.680D-02-0.102D-01-0.257D+00 0.126D+01
 Coeff:     -0.216D-03 0.164D-02 0.680D-02-0.102D-01-0.257D+00 0.126D+01
 Gap=     0.709 Goal=   None    Shift=    0.000
 RMSDP=1.04D-05 MaxDP=6.06D-05 DE=-3.86D-07 OVMax= 8.63D-05

 Cycle   7  Pass 1  IDiag  1:
 E= -76.0098098284430     Delta-E=       -0.000000015393 Rises=F Damp=F
 DIIS: error= 3.23D-06 at cycle   7 NSaved=   7.
 NSaved= 7 IEnMin= 7 EnMin= -76.0098098284430     IErMin= 7 ErrMin= 3.23D-06
 ErrMax= 3.23D-06  0.00D+00 EMaxC= 1.00D-01 BMatC= 1.95D-10 BMatP= 6.03D-09
 IDIUse=1 WtCom= 1.00D+00 WtEn= 0.00D+00
 Coeff-Com:  0.852D-04-0.838D-03-0.306D-02 0.987D-02 0.752D-01-0.490D+00
 Coeff-Com:  0.141D+01
 Coeff:      0.852D-04-0.838D-03-0.306D-02 0.987D-02 0.752D-01-0.490D+00
 Coeff:      0.141D+01
 Gap=     0.709 Goal=   None    Shift=    0.000
 RMSDP=1.38D-06 MaxDP=1.17D-05 DE=-1.54D-08 OVMax= 1.28D-05

 Cycle   8  Pass 1  IDiag  1:
 E= -76.0098098289261     Delta-E=       -0.000000000483 Rises=F Damp=F
 DIIS: error= 8.74D-07 at cycle   8 NSaved=   8.
 NSaved= 8 IEnMin= 8 EnMin= -76.0098098289261     IErMin= 8 ErrMin= 8.74D-07
 ErrMax= 8.74D-07  0.00D+00 EMaxC= 1.00D-01 BMatC= 6.48D-12 BMatP= 1.95D-10
 IDIUse=1 WtCom= 1.00D+00 WtEn= 0.00D+00
 Coeff-Com: -0.114D-04 0.148D-03 0.486D-03-0.251D-02-0.456D-02 0.606D-01
 Coeff-Com: -0.346D+00 0.129D+01
 Coeff:     -0.114D-04 0.148D-03 0.486D-03-0.251D-02-0.456D-02 0.606D-01
 Coeff:     -0.346D+00 0.129D+01
 Gap=     0.709 Goal=   None    Shift=    0.000
 RMSDP=2.82D-07 MaxDP=1.73D-06 DE=-4.83D-10 OVMax= 2.56D-06

 Cycle   9  Pass 1  IDiag  1:
 E= -76.0098098289430     Delta-E=       -0.000000000017 Rises=F Damp=F
 DIIS: error= 9.14D-08 at cycle   9 NSaved=   9.
 NSaved= 9 IEnMin= 9 EnMin= -76.0098098289430     IErMin= 9 ErrMin= 9.14D-08
 ErrMax= 9.14D-08  0.00D+00 EMaxC= 1.00D-01 BMatC= 1.22D-13 BMatP= 6.48D-12
 IDIUse=1 WtCom= 1.00D+00 WtEn= 0.00D+00
 Coeff-Com:  0.865D-06-0.194D-04-0.553D-04 0.456D-03-0.688D-03-0.486D-02
 Coeff-Com:  0.659D-01-0.391D+00 0.133D+01
 Coeff:      0.865D-06-0.194D-04-0.553D-04 0.456D-03-0.688D-03-0.486D-02
 Coeff:      0.659D-01-0.391D+00 0.133D+01
 Gap=     0.709 Goal=   None    Shift=    0.000
 RMSDP=5.17D-08 MaxDP=2.82D-07 DE=-1.69D-11 OVMax= 4.85D-07

 Cycle  10  Pass 1  IDiag  1:
 E= -76.0098098289433     Delta-E=       -0.000000000000 Rises=F Damp=F
 DIIS: error= 1.28D-08 at cycle  10 NSaved=  10.
 NSaved=10 IEnMin=10 EnMin= -76.0098098289433     IErMin=10 ErrMin= 1.28D-08
 ErrMax= 1.28D-08  0.00D+00 EMaxC= 1.00D-01 BMatC= 1.92D-15 BMatP= 1.22D-13
 IDIUse=1 WtCom= 1.00D+00 WtEn= 0.00D+00
 Coeff-Com: -0.973D-08 0.213D-05 0.515D-05-0.701D-04 0.251D-03 0.120D-03
 Coeff-Com: -0.926D-02 0.619D-01-0.264D+00 0.121D+01
 Coeff:     -0.973D-08 0.213D-05 0.515D-05-0.701D-04 0.251D-03 0.120D-03
 Coeff:     -0.926D-02 0.619D-01-0.264D+00 0.121D+01
 Gap=     0.709 Goal=   None    Shift=    0.000
 RMSDP=4.04D-09 MaxDP=2.18D-08 DE=-3.27D-13 OVMax= 3.91D-08

 SCF Done:  E(RHF) =  -76.0098098289     A.U. after   10 cycles
            NFock= 10  Conv=0.40D-08     -V/T= 2.0025
 KE= 7.582187841404D+01 PE=-1.988486513319D+02 EE= 3.782916378863D+01
 Leave Link  502 at Wed Feb  8 15:06:12 2023, MaxMem=   754974720 cpu:               3.9 elap:               1.9
 (Enter /opt/cluster/programs/g16-c.01/g16/l601.exe)
 Copying SCF densities to generalized density rwf, IOpCl= 0 IROHF=0.

 **********************************************************************

            Population analysis using the SCF Density.

 **********************************************************************

 Orbital symmetries:
       Occupied  (A1) (A1) (B2) (A1) (B1)
       Virtual   (A1) (B2) (B2) (A1) (B1) (A1) (B2) (A1) (A1) (A2)
                 (B1) (A1) (B2) (A1)
 The electronic state is 1-A1.
 Alpha  occ. eigenvalues --  -20.56298  -1.34447  -0.69819  -0.57915  -0.49943
 Alpha virt. eigenvalues --    0.20956   0.30326   1.00442   1.13310   1.16665
 Alpha virt. eigenvalues --    1.18395   1.37683   1.45004   2.00907   2.03744
 Alpha virt. eigenvalues --    2.06328   2.62100   2.93504   3.96165
          Condensed to atoms (all electrons):
               1          2          3
     1  O    8.329587   0.264543   0.264543
     2  H    0.264543   0.327189  -0.021067
     3  H    0.264543  -0.021067   0.327189
 Mulliken charges:
               1
     1  O   -0.858672
     2  H    0.429336
     3  H    0.429336
 Sum of Mulliken charges =  -0.00000
 Mulliken charges with hydrogens summed into heavy atoms:
               1
     1  O   -0.000000
 Electronic spatial extent (au):  <R**2>=             18.9790
 Charge=             -0.0000 electrons
 Dipole moment (field-independent basis, Debye):
    X=             -0.0000    Y=             -0.0000    Z=             -2.2962  Tot=              2.2962
 Quadrupole moment (field-independent basis, Debye-Ang):
   XX=             -7.2309   YY=             -4.3173   ZZ=             -5.8676
   XY=              0.0000   XZ=              0.0000   YZ=              0.0000
 Traceless Quadrupole moment (field-independent basis, Debye-Ang):
   XX=             -1.4256   YY=              1.4880   ZZ=             -0.0624
   XY=              0.0000   XZ=              0.0000   YZ=              0.0000
 Octapole moment (field-independent basis, Debye-Ang**2):
  XXX=              0.0000  YYY=             -0.0000  ZZZ=             -1.5309  XYY=             -0.0000
  XXY=              0.0000  XXZ=             -0.3962  XZZ=             -0.0000  YZZ=             -0.0000
  YYZ=             -1.3645  XYZ=             -0.0000
 Hexadecapole moment (field-independent basis, Debye-Ang**3):
 XXXX=             -5.2110 YYYY=             -5.6192 ZZZZ=             -6.1294 XXXY=             -0.0000
 XXXZ=             -0.0000 YYYX=              0.0000 YYYZ=              0.0000 ZZZX=             -0.0000
 ZZZY=             -0.0000 XXYY=             -2.0359 XXZZ=             -1.9503 YYZZ=             -1.5816
 XXYZ=             -0.0000 YYXZ=              0.0000 ZZXY=              0.0000
 N-N= 9.187799300282D+00 E-N=-1.988486514459D+02  KE= 7.582187841404D+01
 Symmetry A1   KE= 6.772456230762D+01
 Symmetry A2   KE= 4.474718088056D-35
 Symmetry B1   KE= 4.560323942466D+00
 Symmetry B2   KE= 3.536992163951D+00
 No NMR shielding tensors so no spin-rotation constants.
 Leave Link  601 at Wed Feb  8 15:06:13 2023, MaxMem=   754974720 cpu:               1.2 elap:               0.6
 (Enter /opt/cluster/programs/g16-c.01/g16/l9999.exe)
 Unable to Open any file for archive entry.
 1\1\GINC-NODE59\SP\RHF\6-31G(d)\H2O1\BOITTIER\08-Feb-2023\0\\#P HF/6-3
 1g* scf(maxcycle=200)\\Gaussian input\\0,1\O,0,0.,0.11751,0.\H,0,0.757
 8497316,-0.4701504329,0.\H,0,-0.7153700578,-0.5211813812,0.\\Version=E
 S64L-G16RevC.01\State=1-A1\HF=-76.0098098\RMSD=4.039e-09\Dipole=0.0312
 737,-0.9028446,0.\Quadrupole=1.1048802,-0.0449818,-1.0598984,0.039878,
 0.,0.\PG=C02V [C2(O1),SGV(H2)]\\@
 The archive entry for this job was punched.


 BULLDOZER: SOMEONE WHO SLEEPS THROUGH SPEECHES.
 Job cpu time:       0 days  0 hours  0 minutes  7.3 seconds.
 Elapsed time:       0 days  0 hours  0 minutes  3.3 seconds.
 File lengths (MBytes):  RWF=      6 Int=      0 D2E=      0 Chk=      1 Scr=      1
 Normal termination of Gaussian 16 at Wed Feb  8 15:06:13 2023.
