 Entering Gaussian System, Link 0=/opt/cluster/programs/g16-c.01/g16/g16
 Input=/scratch/boittier/jobs/tmp.7261831/gaussian_153_water_ccsdt_atz.com
 Output=/scratch/boittier/jobs/tmp.7261831/gaussian_153_water_ccsdt_atz.out
 Initial command:
 /opt/cluster/programs/g16-c.01/g16/l1.exe "/scratch/boittier/jobs/tmp.7261831/Gau-173079.inp" -scrdir="/scratch/boittier/jobs/tmp.7261831/"
 Entering Link 1 = /opt/cluster/programs/g16-c.01/g16/l1.exe PID=    173080.
  
 Copyright (c) 1988-2019, Gaussian, Inc.  All Rights Reserved.
  
 This is part of the Gaussian(R) 16 program.  It is based on
 the Gaussian(R) 09 system (copyright 2009, Gaussian, Inc.),
 the Gaussian(R) 03 system (copyright 2003, Gaussian, Inc.),
 the Gaussian(R) 98 system (copyright 1998, Gaussian, Inc.),
 the Gaussian(R) 94 system (copyright 1995, Gaussian, Inc.),
 the Gaussian 92(TM) system (copyright 1992, Gaussian, Inc.),
 the Gaussian 90(TM) system (copyright 1990, Gaussian, Inc.),
 the Gaussian 88(TM) system (copyright 1988, Gaussian, Inc.),
 the Gaussian 86(TM) system (copyright 1986, Carnegie Mellon
 University), and the Gaussian 82(TM) system (copyright 1983,
 Carnegie Mellon University). Gaussian is a federally registered
 trademark of Gaussian, Inc.
  
 This software contains proprietary and confidential information,
 including trade secrets, belonging to Gaussian, Inc.
  
 This software is provided under written license and may be
 used, copied, transmitted, or stored only in accord with that
 written license.
  
 The following legend is applicable only to US Government
 contracts under FAR:
  
                    RESTRICTED RIGHTS LEGEND
  
 Use, reproduction and disclosure by the US Government is
 subject to restrictions as set forth in subparagraphs (a)
 and (c) of the Commercial Computer Software - Restricted
 Rights clause in FAR 52.227-19.
  
 Gaussian, Inc.
 340 Quinnipiac St., Bldg. 40, Wallingford CT 06492
  
  
 ---------------------------------------------------------------
 Warning -- This program may not be used in any manner that
 competes with the business of Gaussian, Inc. or will provide
 assistance to any competitor of Gaussian, Inc.  The licensee
 of this program is prohibited from giving any competitor of
 Gaussian, Inc. access to this program.  By using this program,
 the user acknowledges that Gaussian, Inc. is engaged in the
 business of creating and licensing software in the field of
 computational chemistry and represents and warrants to the
 licensee that it is not a competitor of Gaussian, Inc. and that
 it will not use this program in any manner prohibited above.
 ---------------------------------------------------------------
  

 Cite this work as:
 Gaussian 16, Revision C.01,
 M. J. Frisch, G. W. Trucks, H. B. Schlegel, G. E. Scuseria, 
 M. A. Robb, J. R. Cheeseman, G. Scalmani, V. Barone, 
 G. A. Petersson, H. Nakatsuji, X. Li, M. Caricato, A. V. Marenich, 
 J. Bloino, B. G. Janesko, R. Gomperts, B. Mennucci, H. P. Hratchian, 
 J. V. Ortiz, A. F. Izmaylov, J. L. Sonnenberg, D. Williams-Young, 
 F. Ding, F. Lipparini, F. Egidi, J. Goings, B. Peng, A. Petrone, 
 T. Henderson, D. Ranasinghe, V. G. Zakrzewski, J. Gao, N. Rega, 
 G. Zheng, W. Liang, M. Hada, M. Ehara, K. Toyota, R. Fukuda, 
 J. Hasegawa, M. Ishida, T. Nakajima, Y. Honda, O. Kitao, H. Nakai, 
 T. Vreven, K. Throssell, J. A. Montgomery, Jr., J. E. Peralta, 
 F. Ogliaro, M. J. Bearpark, J. J. Heyd, E. N. Brothers, K. N. Kudin, 
 V. N. Staroverov, T. A. Keith, R. Kobayashi, J. Normand, 
 K. Raghavachari, A. P. Rendell, J. C. Burant, S. S. Iyengar, 
 J. Tomasi, M. Cossi, J. M. Millam, M. Klene, C. Adamo, R. Cammi, 
 J. W. Ochterski, R. L. Martin, K. Morokuma, O. Farkas, 
 J. B. Foresman, and D. J. Fox, Gaussian, Inc., Wallingford CT, 2019.
 
 ******************************************
 Gaussian 16:  ES64L-G16RevC.01  3-Jul-2019
                 8-Feb-2023 
 ******************************************
 %nproc=4
 Will use up to    4 processors via shared memory.
 %mem=5760MB
 %chk=gaussian_153_water_ccsdt_atz.chk
 ----------------------------------------
 #P CCSD(T)/aug-cc-pVTZ scf(maxcycle=200)
 ----------------------------------------
 1/38=1,172=1/1;
 2/12=2,17=6,18=5,40=1/2;
 3/5=16,6=1,7=10,11=9,25=1,30=1/1,2,3;
 4//1;
 5/5=2,7=200,38=5/2;
 8/6=4,9=120000,10=1/1,4;
 9/5=7,14=2/13;
 6/7=2,8=2,9=2,10=2/1;
 99/5=1,9=1/99;
 Leave Link    1 at Wed Feb  8 13:56:44 2023, MaxMem=   754974720 cpu:               0.1 elap:               0.0
 (Enter /opt/cluster/programs/g16-c.01/g16/l101.exe)
 --------------
 Gaussian input
 --------------
 Symbolic Z-matrix:
 Charge =  0 Multiplicity = 1
 O                     0.        0.11751   0. 
 H                     0.79736  -0.50079   0. 
 H                    -0.81541  -0.38726   0. 
 
 ITRead=  0  0  0
 MicOpt= -1 -1 -1
 NAtoms=      3 NQM=        3 NQMF=       0 NMMI=      0 NMMIF=      0
                NMic=       0 NMicF=      0.
                    Isotopes and Nuclear Properties:
 (Nuclear quadrupole moments (NQMom) in fm**2, nuclear magnetic moments (NMagM)
  in nuclear magnetons)

  Atom         1           2           3
 IAtWgt=          16           1           1
 AtmWgt=  15.9949146   1.0078250   1.0078250
 NucSpn=           0           1           1
 AtZEff=  -0.0000000  -0.0000000  -0.0000000
 NQMom=    0.0000000   0.0000000   0.0000000
 NMagM=    0.0000000   2.7928460   2.7928460
 AtZNuc=   8.0000000   1.0000000   1.0000000
 Leave Link  101 at Wed Feb  8 13:56:44 2023, MaxMem=   754974720 cpu:               0.5 elap:               0.2
 (Enter /opt/cluster/programs/g16-c.01/g16/l202.exe)
                          Input orientation:                          
 ---------------------------------------------------------------------
 Center     Atomic      Atomic             Coordinates (Angstroms)
 Number     Number       Type             X           Y           Z
 ---------------------------------------------------------------------
      1          8           0        0.000000    0.117510    0.000000
      2          1           0        0.797362   -0.500790    0.000000
      3          1           0       -0.815410   -0.387256    0.000000
 ---------------------------------------------------------------------
                    Distance matrix (angstroms):
                    1          2          3
     1  O    0.000000
     2  H    1.009000   0.000000
     3  H    0.959000   1.616763   0.000000
 Stoichiometry    H2O
 Framework group  CS[SG(H2O)]
 Deg. of freedom     3
 Full point group                 CS      NOp   2
 Largest Abelian subgroup         CS      NOp   2
 Largest concise Abelian subgroup C1      NOp   1
                         Standard orientation:                         
 ---------------------------------------------------------------------
 Center     Atomic      Atomic             Coordinates (Angstroms)
 Number     Number       Type             X           Y           Z
 ---------------------------------------------------------------------
      1          8           0        0.000000    0.112321   -0.000000
      2          1           0        0.807194   -0.493087    0.000000
      3          1           0       -0.807194   -0.405481    0.000000
 ---------------------------------------------------------------------
 Rotational constants (GHZ):         899.7343580         382.8400728         268.5648169
 Leave Link  202 at Wed Feb  8 13:56:44 2023, MaxMem=   754974720 cpu:               0.0 elap:               0.0
 (Enter /opt/cluster/programs/g16-c.01/g16/l301.exe)
 Standard basis: Aug-CC-pVTZ (5D, 7F)
 Ernie: Thresh=  0.10000D-02 Tol=  0.10000D-05 Strict=F.
 Ernie:  3 primitive shells out of 52 were deleted.
 There are    73 symmetry adapted cartesian basis functions of A'  symmetry.
 There are    32 symmetry adapted cartesian basis functions of A"  symmetry.
 There are    62 symmetry adapted basis functions of A'  symmetry.
 There are    30 symmetry adapted basis functions of A"  symmetry.
    92 basis functions,   126 primitive gaussians,   105 cartesian basis functions
     5 alpha electrons        5 beta electrons
       nuclear repulsion energy         8.9373717973 Hartrees.
 IExCor=    0 DFT=F Ex=HF Corr=None ExCW=0 ScaHFX=  1.000000
 ScaDFX=  1.000000  1.000000  1.000000  1.000000 ScalE2=  1.000000  1.000000
 IRadAn=      5 IRanWt=     -1 IRanGd=            0 ICorTp=0 IEmpDi=  4
 NAtoms=    3 NActive=    3 NUniq=    3 SFac= 1.00D+00 NAtFMM=   60 NAOKFM=F Big=F
 Integral buffers will be    131072 words long.
 Raffenetti 1 integral format.
 Two-electron integral symmetry is turned on.
 Leave Link  301 at Wed Feb  8 13:56:44 2023, MaxMem=   754974720 cpu:               0.2 elap:               0.1
 (Enter /opt/cluster/programs/g16-c.01/g16/l302.exe)
 NPDir=0 NMtPBC=     1 NCelOv=     1 NCel=       1 NClECP=     1 NCelD=      1
         NCelK=      1 NCelE2=     1 NClLst=     1 CellRange=     0.0.
 One-electron integrals computed using PRISM.
 One-electron integral symmetry used in STVInt
 NBasis=    92 RedAO= T EigKep=  3.80D-04  NBF=    62    30
 NBsUse=    92 1.00D-06 EigRej= -1.00D+00 NBFU=    62    30
 Leave Link  302 at Wed Feb  8 13:56:44 2023, MaxMem=   754974720 cpu:               0.5 elap:               0.1
 (Enter /opt/cluster/programs/g16-c.01/g16/l303.exe)
 DipDrv:  MaxL=1.
 Leave Link  303 at Wed Feb  8 13:56:44 2023, MaxMem=   754974720 cpu:               0.5 elap:               0.2
 (Enter /opt/cluster/programs/g16-c.01/g16/l401.exe)
 ExpMin= 2.53D-02 ExpMax= 1.53D+04 ExpMxC= 5.22D+02 IAcc=3 IRadAn=         5 AccDes= 0.00D+00
 Harris functional with IExCor=  205 and IRadAn=       5 diagonalized for initial guess.
 HarFok:  IExCor=  205 AccDes= 0.00D+00 IRadAn=         5 IDoV= 1 UseB2=F ITyADJ=14
 ICtDFT=  3500011 ScaDFX=  1.000000  1.000000  1.000000  1.000000
 FoFCou: FMM=F IPFlag=           0 FMFlag=      100000 FMFlg1=           0
         NFxFlg=           0 DoJE=T BraDBF=F KetDBF=T FulRan=T
         wScrn=  0.000000 ICntrl=       500 IOpCl=  0 I1Cent=   200000004 NGrid=           0
         NMat0=    1 NMatS0=      1 NMatT0=    0 NMatD0=    1 NMtDS0=    0 NMtDT0=    0
 Petite list used in FoFCou.
 Harris En= -76.1500566016516    
 JPrj=0 DoOrth=F DoCkMO=F.
 Initial guess orbital symmetries:
       Occupied  (A') (A') (A') (A') (A")
       Virtual   (A') (A') (A') (A") (A') (A') (A') (A') (A") (A')
                 (A") (A') (A') (A') (A') (A') (A') (A") (A") (A')
                 (A') (A") (A") (A') (A") (A') (A') (A') (A') (A")
                 (A') (A') (A") (A') (A") (A") (A') (A') (A') (A')
                 (A') (A") (A") (A') (A') (A") (A') (A') (A") (A')
                 (A') (A") (A') (A') (A') (A") (A") (A') (A') (A")
                 (A") (A') (A") (A') (A') (A') (A') (A") (A') (A')
                 (A") (A') (A') (A') (A") (A') (A") (A") (A') (A")
                 (A") (A') (A') (A') (A') (A') (A')
 The electronic state of the initial guess is 1-A'.
 Leave Link  401 at Wed Feb  8 13:56:45 2023, MaxMem=   754974720 cpu:               2.0 elap:               1.0
 (Enter /opt/cluster/programs/g16-c.01/g16/l502.exe)
 Keep R1 ints in memory in symmetry-blocked form, NReq=13818732.
 FoFCou: FMM=F IPFlag=           0 FMFlag=           0 FMFlg1=           0
         NFxFlg=           0 DoJE=F BraDBF=F KetDBF=F FulRan=T
         wScrn=  0.000000 ICntrl=       600 IOpCl=  0 I1Cent=           0 NGrid=           0
         NMat0=    1 NMatS0=   4278 NMatT0=    0 NMatD0=    1 NMtDS0=    0 NMtDT0=    0
 Petite list used in FoFCou.
 Closed shell SCF:
 Using DIIS extrapolation, IDIIS=  1040.
 NGot=   754974720 LenX=   750285684 LenY=   750274218
 Requested convergence on RMS density matrix=1.00D-08 within 200 cycles.
 Requested convergence on MAX density matrix=1.00D-06.
 Requested convergence on             energy=1.00D-06.
 No special actions if energy rises.

 Cycle   1  Pass 1  IDiag  1:
 E= -75.9675103655757    
 DIIS: error= 6.02D-02 at cycle   1 NSaved=   1.
 NSaved= 1 IEnMin= 1 EnMin= -75.9675103655757     IErMin= 1 ErrMin= 6.02D-02
 ErrMax= 6.02D-02  0.00D+00 EMaxC= 1.00D-01 BMatC= 2.00D-01 BMatP= 2.00D-01
 IDIUse=3 WtCom= 3.98D-01 WtEn= 6.02D-01
 Coeff-Com:  0.100D+01
 Coeff-En:   0.100D+01
 Coeff:      0.100D+01
 Gap=     0.452 Goal=   None    Shift=    0.000
 GapD=    0.452 DampG=2.000 DampE=0.500 DampFc=1.0000 IDamp=-1.
 RMSDP=2.14D-03 MaxDP=4.80D-02              OVMax= 1.24D-01

 Cycle   2  Pass 1  IDiag  1:
 E= -76.0177286915727     Delta-E=       -0.050218325997 Rises=F Damp=F
 DIIS: error= 4.11D-02 at cycle   2 NSaved=   2.
 NSaved= 2 IEnMin= 2 EnMin= -76.0177286915727     IErMin= 2 ErrMin= 4.11D-02
 ErrMax= 4.11D-02  0.00D+00 EMaxC= 1.00D-01 BMatC= 6.06D-02 BMatP= 2.00D-01
 IDIUse=3 WtCom= 5.89D-01 WtEn= 4.11D-01
 Coeff-Com:  0.327D+00 0.673D+00
 Coeff-En:   0.217D+00 0.783D+00
 Coeff:      0.282D+00 0.718D+00
 Gap=     0.563 Goal=   None    Shift=    0.000
 RMSDP=1.31D-03 MaxDP=3.36D-02 DE=-5.02D-02 OVMax= 6.63D-02

 Cycle   3  Pass 1  IDiag  1:
 E= -76.0537866942276     Delta-E=       -0.036058002655 Rises=F Damp=F
 DIIS: error= 8.54D-03 at cycle   3 NSaved=   3.
 NSaved= 3 IEnMin= 3 EnMin= -76.0537866942276     IErMin= 3 ErrMin= 8.54D-03
 ErrMax= 8.54D-03  0.00D+00 EMaxC= 1.00D-01 BMatC= 2.94D-03 BMatP= 6.06D-02
 IDIUse=3 WtCom= 9.15D-01 WtEn= 8.54D-02
 Coeff-Com: -0.312D-01 0.149D+00 0.882D+00
 Coeff-En:   0.000D+00 0.000D+00 0.100D+01
 Coeff:     -0.286D-01 0.137D+00 0.892D+00
 Gap=     0.533 Goal=   None    Shift=    0.000
 RMSDP=2.24D-04 MaxDP=4.27D-03 DE=-3.61D-02 OVMax= 1.31D-02

 Cycle   4  Pass 1  IDiag  1:
 E= -76.0556475381844     Delta-E=       -0.001860843957 Rises=F Damp=F
 DIIS: error= 7.54D-04 at cycle   4 NSaved=   4.
 NSaved= 4 IEnMin= 4 EnMin= -76.0556475381844     IErMin= 4 ErrMin= 7.54D-04
 ErrMax= 7.54D-04  0.00D+00 EMaxC= 1.00D-01 BMatC= 1.66D-05 BMatP= 2.94D-03
 IDIUse=3 WtCom= 9.92D-01 WtEn= 7.54D-03
 Coeff-Com:  0.676D-02-0.557D-01-0.238D+00 0.129D+01
 Coeff-En:   0.000D+00 0.000D+00 0.000D+00 0.100D+01
 Coeff:      0.671D-02-0.553D-01-0.236D+00 0.128D+01
 Gap=     0.535 Goal=   None    Shift=    0.000
 RMSDP=4.11D-05 MaxDP=7.67D-04 DE=-1.86D-03 OVMax= 2.49D-03

 Cycle   5  Pass 1  IDiag  1:
 E= -76.0556760313618     Delta-E=       -0.000028493177 Rises=F Damp=F
 DIIS: error= 2.11D-04 at cycle   5 NSaved=   5.
 NSaved= 5 IEnMin= 5 EnMin= -76.0556760313618     IErMin= 5 ErrMin= 2.11D-04
 ErrMax= 2.11D-04  0.00D+00 EMaxC= 1.00D-01 BMatC= 8.46D-07 BMatP= 1.66D-05
 IDIUse=3 WtCom= 9.98D-01 WtEn= 2.11D-03
 Coeff-Com:  0.601D-03 0.427D-03-0.320D-02-0.260D+00 0.126D+01
 Coeff-En:   0.000D+00 0.000D+00 0.000D+00 0.000D+00 0.100D+01
 Coeff:      0.600D-03 0.426D-03-0.320D-02-0.259D+00 0.126D+01
 Gap=     0.536 Goal=   None    Shift=    0.000
 RMSDP=1.29D-05 MaxDP=2.59D-04 DE=-2.85D-05 OVMax= 8.40D-04

 Cycle   6  Pass 1  IDiag  1:
 E= -76.0556782268231     Delta-E=       -0.000002195461 Rises=F Damp=F
 DIIS: error= 3.44D-05 at cycle   6 NSaved=   6.
 NSaved= 6 IEnMin= 6 EnMin= -76.0556782268231     IErMin= 6 ErrMin= 3.44D-05
 ErrMax= 3.44D-05  0.00D+00 EMaxC= 1.00D-01 BMatC= 2.66D-08 BMatP= 8.46D-07
 IDIUse=1 WtCom= 1.00D+00 WtEn= 0.00D+00
 Coeff-Com: -0.339D-03 0.175D-02 0.790D-02 0.102D-01-0.311D+00 0.129D+01
 Coeff:     -0.339D-03 0.175D-02 0.790D-02 0.102D-01-0.311D+00 0.129D+01
 Gap=     0.536 Goal=   None    Shift=    0.000
 RMSDP=2.78D-06 MaxDP=6.48D-05 DE=-2.20D-06 OVMax= 1.91D-04

 Cycle   7  Pass 1  IDiag  1:
 E= -76.0556783121215     Delta-E=       -0.000000085298 Rises=F Damp=F
 DIIS: error= 5.89D-06 at cycle   7 NSaved=   7.
 NSaved= 7 IEnMin= 7 EnMin= -76.0556783121215     IErMin= 7 ErrMin= 5.89D-06
 ErrMax= 5.89D-06  0.00D+00 EMaxC= 1.00D-01 BMatC= 1.38D-09 BMatP= 2.66D-08
 IDIUse=1 WtCom= 1.00D+00 WtEn= 0.00D+00
 Coeff-Com:  0.335D-04-0.390D-03-0.168D-02 0.160D-01-0.176D-01-0.203D+00
 Coeff-Com:  0.121D+01
 Coeff:      0.335D-04-0.390D-03-0.168D-02 0.160D-01-0.176D-01-0.203D+00
 Coeff:      0.121D+01
 Gap=     0.536 Goal=   None    Shift=    0.000
 RMSDP=4.12D-07 MaxDP=1.03D-05 DE=-8.53D-08 OVMax= 3.67D-05

 Cycle   8  Pass 1  IDiag  1:
 E= -76.0556783152611     Delta-E=       -0.000000003140 Rises=F Damp=F
 DIIS: error= 1.59D-06 at cycle   8 NSaved=   8.
 NSaved= 8 IEnMin= 8 EnMin= -76.0556783152611     IErMin= 8 ErrMin= 1.59D-06
 ErrMax= 1.59D-06  0.00D+00 EMaxC= 1.00D-01 BMatC= 7.71D-11 BMatP= 1.38D-09
 IDIUse=1 WtCom= 1.00D+00 WtEn= 0.00D+00
 Coeff-Com:  0.917D-05 0.115D-04 0.976D-04-0.535D-02 0.214D-01-0.649D-02
 Coeff-Com: -0.381D+00 0.137D+01
 Coeff:      0.917D-05 0.115D-04 0.976D-04-0.535D-02 0.214D-01-0.649D-02
 Coeff:     -0.381D+00 0.137D+01
 Gap=     0.536 Goal=   None    Shift=    0.000
 RMSDP=1.33D-07 MaxDP=2.95D-06 DE=-3.14D-09 OVMax= 9.04D-06

 Cycle   9  Pass 1  IDiag  1:
 E= -76.0556783154586     Delta-E=       -0.000000000198 Rises=F Damp=F
 DIIS: error= 2.18D-07 at cycle   9 NSaved=   9.
 NSaved= 9 IEnMin= 9 EnMin= -76.0556783154586     IErMin= 9 ErrMin= 2.18D-07
 ErrMax= 2.18D-07  0.00D+00 EMaxC= 1.00D-01 BMatC= 1.15D-12 BMatP= 7.71D-11
 IDIUse=1 WtCom= 1.00D+00 WtEn= 0.00D+00
 Coeff-Com: -0.209D-05 0.513D-05 0.888D-05 0.594D-03-0.290D-02 0.336D-02
 Coeff-Com:  0.527D-01-0.279D+00 0.123D+01
 Coeff:     -0.209D-05 0.513D-05 0.888D-05 0.594D-03-0.290D-02 0.336D-02
 Coeff:      0.527D-01-0.279D+00 0.123D+01
 Gap=     0.536 Goal=   None    Shift=    0.000
 RMSDP=1.99D-08 MaxDP=3.94D-07 DE=-1.98D-10 OVMax= 9.01D-07

 Cycle  10  Pass 1  IDiag  1:
 E= -76.0556783154611     Delta-E=       -0.000000000003 Rises=F Damp=F
 DIIS: error= 4.38D-08 at cycle  10 NSaved=  10.
 NSaved=10 IEnMin=10 EnMin= -76.0556783154611     IErMin=10 ErrMin= 4.38D-08
 ErrMax= 4.38D-08  0.00D+00 EMaxC= 1.00D-01 BMatC= 5.61D-14 BMatP= 1.15D-12
 IDIUse=1 WtCom= 1.00D+00 WtEn= 0.00D+00
 Coeff-Com:  0.197D-07-0.129D-05-0.531D-05 0.884D-04-0.214D-03-0.628D-03
 Coeff-Com:  0.734D-02-0.116D-01-0.190D+00 0.119D+01
 Coeff:      0.197D-07-0.129D-05-0.531D-05 0.884D-04-0.214D-03-0.628D-03
 Coeff:      0.734D-02-0.116D-01-0.190D+00 0.119D+01
 Gap=     0.536 Goal=   None    Shift=    0.000
 RMSDP=4.62D-09 MaxDP=9.77D-08 DE=-2.56D-12 OVMax= 2.12D-07

 SCF Done:  E(RHF) =  -76.0556783155     A.U. after   10 cycles
            NFock= 10  Conv=0.46D-08     -V/T= 2.0027
 KE= 7.585082586056D+01 PE=-1.984481294217D+02 EE= 3.760425344829D+01
 Leave Link  502 at Wed Feb  8 13:56:49 2023, MaxMem=   754974720 cpu:               9.5 elap:               3.2
 (Enter /opt/cluster/programs/g16-c.01/g16/l801.exe)
 Windowed orbitals will be sorted by symmetry type.
 ExpMin= 2.53D-02 ExpMax= 1.53D+04 ExpMxC= 5.22D+02 IAcc=3 IRadAn=         5 AccDes= 0.00D+00
 HarFok:  IExCor=  205 AccDes= 0.00D+00 IRadAn=         5 IDoV=-2 UseB2=F ITyADJ=14
 ICtDFT= 12500011 ScaDFX=  1.000000  1.000000  1.000000  1.000000
 Largest valence mixing into a core orbital is  1.12D-04
 Largest core mixing into a valence orbital is  1.79D-05
 Range of M.O.s used for correlation:     2    92
 NBasis=    92 NAE=     5 NBE=     5 NFC=     1 NFV=     0
 NROrb=     91 NOA=     4 NOB=     4 NVA=    87 NVB=    87

 **** Warning!!: The largest alpha MO coefficient is  0.15208388D+02

 Leave Link  801 at Wed Feb  8 13:56:49 2023, MaxMem=   754974720 cpu:               0.5 elap:               0.3
 (Enter /opt/cluster/programs/g16-c.01/g16/l804.exe)
 Closed-shell transformation, MDV=   754974720 ITran=4 ISComp=2.
 Unit  1 TFree=        277501 TCopy=        343607.
 Semi-Direct transformation.
 ModeAB=           2 MOrb=             4 LenV=     754586778
 LASXX=       736380 LTotXX=      736380 LenRXX=      736380
 LTotAB=      763744 MaxLAS=     2025660 LenRXY=     2025660
 NonZer=     2107560 LenScr=     3929600 LnRSAI=           0
 LnScr1=           0 LExtra=           0 Total=      6691640
 MaxDsk=          -1 SrtSym=           F ITran=            4
 DoSDTr:  NPSUse=  4
 JobTyp=0 Pass  1:  I=   1 to   4.
 (rs|ai) integrals will be sorted in core.
 Complete sort for first half transformation.
 First half transformation complete.
 Complete sort for second half transformation.
 Second half transformation complete.
 Spin components of T(2) and E(2):
     alpha-alpha T2 =       0.8318017678D-02 E2=     -0.3276641958D-01
     alpha-beta  T2 =       0.4849646367D-01 E2=     -0.2045805162D+00
     beta-beta   T2 =       0.8318017678D-02 E2=     -0.3276641958D-01
 ANorm=    0.1032052566D+01
 E2 =    -0.2701133553D+00 EUMP2 =    -0.76325791670785D+02
 Leave Link  804 at Wed Feb  8 13:56:49 2023, MaxMem=   754974720 cpu:               2.4 elap:               0.6
 (Enter /opt/cluster/programs/g16-c.01/g16/l913.exe)
 CIDS:  MDV=   754974720.
 Frozen-core window:  NFC=   1 NFV=   0.
 IFCWin=0 IBDFC=1 NFBD=     0     0 NFCmp=     0     0 NFFFC=     0     0
 Using DD3R+UMP44R for 1st iteration.
 Using DD4RQ for 2nd and later iterations.
 Keep R2 and R3 ints in memory in symmetry-blocked form, NReq=13979827.
 FoFCou: FMM=F IPFlag=           0 FMFlag=           0 FMFlg1=           0
         NFxFlg=           0 DoJE=F BraDBF=F KetDBF=F FulRan=T
         wScrn=  0.000000 ICntrl=       600 IOpCl=  0 I1Cent=           0 NGrid=           0
         NMat0=    1 NMatS0=   4278 NMatT0=    0 NMatD0=    1 NMtDS0=    0 NMtDT0=    0
 Petite list used in FoFCou.
 CIDS: In Core Option IDoMem=           1.
 CCSD(T)
 =======
 Iterations=  50 Convergence= 0.100D-06
 Produce multiple copies of IABC intergrals
 Iteration Nr.   1
 **********************
 DD1Dir will call FoFMem   1 times, MxPair=        20
 NAB=    10 NAA=     0 NBB=     0.
 MP4(R+Q)=  0.41433280D-02
 Maximum subspace dimension=  5
 A-vector RMS=  2.9545826D-03 Max=  1.2835353D-02 conv= 1.00D-05.
 RLE energy=       -0.2681867660
 E3=       -0.22458593D-02        EUMP3=      -0.76328037530D+02
 E4(DQ)=   -0.77741668D-03        UMP4(DQ)=   -0.76328814947D+02
 E4(SDQ)=  -0.27707119D-02        UMP4(SDQ)=  -0.76330808242D+02
 VARIATIONAL ENERGIES WITH THE FIRST-ORDER WAVEFUNCTION:
 DE(Corr)= -0.26817293     E(Corr)=     -76.323851248    
 NORM(A)=   0.10317966D+01
 Iteration Nr.   2
 **********************
 DD1Dir will call FoFMem   1 times, MxPair=        20
 NAB=    10 NAA=     0 NBB=     0.
 A-vector RMS=  3.2482409D-04 Max=  2.3124513D-03 conv= 1.00D-05.
 RLE energy=       -0.2742421418
 DE(Corr)= -0.27383769     E(CORR)=     -76.329516007     Delta=-5.66D-03
 NORM(A)=   0.10340639D+01
 Iteration Nr.   3
 **********************
 DD1Dir will call FoFMem   1 times, MxPair=        20
 NAB=    10 NAA=     0 NBB=     0.
 A-vector RMS=  4.2119959D-04 Max=  2.3878349D-03 conv= 1.00D-05.
 RLE energy=       -0.2745799401
 DE(Corr)= -0.27417505     E(CORR)=     -76.329853370     Delta=-3.37D-04
 NORM(A)=   0.10345251D+01
 Iteration Nr.   4
 **********************
 DD1Dir will call FoFMem   1 times, MxPair=        20
 NAB=    10 NAA=     0 NBB=     0.
 A-vector RMS=  6.7004975D-05 Max=  4.0433678D-04 conv= 1.00D-05.
 RLE energy=       -0.2746166573
 DE(Corr)= -0.27458584     E(CORR)=     -76.330264152     Delta=-4.11D-04
 NORM(A)=   0.10346481D+01
 Iteration Nr.   5
 **********************
 DD1Dir will call FoFMem   1 times, MxPair=        20
 NAB=    10 NAA=     0 NBB=     0.
 A-vector RMS=  3.3030932D-05 Max=  2.0350665D-04 conv= 1.00D-05.
 RLE energy=       -0.2746302314
 DE(Corr)= -0.27462413     E(CORR)=     -76.330302449     Delta=-3.83D-05
 NORM(A)=   0.10346734D+01
 Iteration Nr.   6
 **********************
 DD1Dir will call FoFMem   1 times, MxPair=        20
 NAB=    10 NAA=     0 NBB=     0.
 A-vector RMS=  7.8720646D-06 Max=  4.1432297D-05 conv= 1.00D-05.
 RLE energy=       -0.2746261592
 DE(Corr)= -0.27462727     E(CORR)=     -76.330305585     Delta=-3.14D-06
 NORM(A)=   0.10346755D+01
 Iteration Nr.   7
 **********************
 DD1Dir will call FoFMem   1 times, MxPair=        20
 NAB=    10 NAA=     0 NBB=     0.
 A-vector RMS=  3.0152977D-06 Max=  1.6350327D-05 conv= 1.00D-05.
 RLE energy=       -0.2746262684
 DE(Corr)= -0.27462729     E(CORR)=     -76.330305610     Delta=-2.54D-08
 NORM(A)=   0.10346762D+01
 Iteration Nr.   8
 **********************
 DD1Dir will call FoFMem   1 times, MxPair=        20
 NAB=    10 NAA=     0 NBB=     0.
 A-vector RMS=  1.1312481D-06 Max=  5.2525571D-06 conv= 1.00D-05.
 RLE energy=       -0.2746268659
 DE(Corr)= -0.27462700     E(CORR)=     -76.330305316     Delta= 2.95D-07
 NORM(A)=   0.10346767D+01
 Iteration Nr.   9
 **********************
 DD1Dir will call FoFMem   1 times, MxPair=        20
 NAB=    10 NAA=     0 NBB=     0.
 A-vector RMS=  3.4849483D-07 Max=  2.0236529D-06 conv= 1.00D-05.
 RLE energy=       -0.2746269983
 DE(Corr)= -0.27462702     E(CORR)=     -76.330305334     Delta=-1.85D-08
 NORM(A)=   0.10346769D+01
 CI/CC converged in    9 iterations to DelEn=-1.85D-08 Conv= 1.00D-07 ErrA1= 3.48D-07 Conv= 1.00D-05
 Wavefunction amplitudes converged. E(Corr)=     -76.330305334    
 Largest amplitude= 2.12D-02
 IPart=  3 IA=    6   11.23% done.
 IPart=  3 IA=   11   21.79% done.
 IPart=  2 IA=   16   31.68% done.
 IPart=  3 IA=   21   40.90% done.
 IPart=  3 IA=   27   51.08% done.
 IPart=  3 IA=   33   60.30% done.
 IPart=  4 IA=   41   71.10% done.
 IPart=  4 IA=   49   80.19% done.
 IPart=  1 IA=   61   90.62% done.
 Time for triples=        6.48 seconds.
 T4(CCSD)= -0.92081648D-02
 T5(CCSD)=  0.34037155D-03
 CCSD(T)= -0.76339173127D+02
 Discarding MO integrals.
 Leave Link  913 at Wed Feb  8 13:57:55 2023, MaxMem=   754974720 cpu:             133.4 elap:              66.0
 (Enter /opt/cluster/programs/g16-c.01/g16/l601.exe)
 Copying SCF densities to generalized density rwf, IOpCl= 0 IROHF=0.

 **********************************************************************

            Population analysis using the SCF Density.

 **********************************************************************

 Orbital symmetries:
       Occupied  (A') (A') (A') (A') (A")
       Virtual   (A') (A') (A') (A") (A') (A') (A') (A') (A") (A")
                 (A') (A') (A') (A') (A') (A') (A') (A") (A") (A')
                 (A") (A') (A') (A") (A') (A") (A') (A') (A') (A")
                 (A') (A") (A') (A') (A") (A') (A") (A') (A') (A')
                 (A') (A") (A") (A') (A') (A") (A') (A') (A") (A')
                 (A') (A") (A') (A') (A') (A") (A") (A') (A') (A")
                 (A") (A") (A') (A') (A') (A') (A') (A") (A') (A')
                 (A") (A') (A') (A') (A") (A') (A") (A") (A') (A")
                 (A') (A") (A') (A') (A') (A') (A')
 The electronic state is 1-A'.
 Alpha  occ. eigenvalues --  -20.56885  -1.33683  -0.71406  -0.56828  -0.50638
 Alpha virt. eigenvalues --    0.02940   0.04721   0.13655   0.15886   0.17229
 Alpha virt. eigenvalues --    0.18168   0.22709   0.24304   0.26282   0.30573
 Alpha virt. eigenvalues --    0.31370   0.36429   0.43026   0.46319   0.60200
 Alpha virt. eigenvalues --    0.64958   0.71185   0.71844   0.73143   0.81724
 Alpha virt. eigenvalues --    0.84031   0.89435   0.90649   0.91573   0.92646
 Alpha virt. eigenvalues --    0.93018   0.97341   1.01119   1.04079   1.08149
 Alpha virt. eigenvalues --    1.11104   1.16320   1.16357   1.27136   1.50740
 Alpha virt. eigenvalues --    1.58344   1.58637   1.74163   1.80687   1.96566
 Alpha virt. eigenvalues --    2.09818   2.25374   2.31348   2.31988   2.39880
 Alpha virt. eigenvalues --    2.40163   2.43262   2.48776   2.71331   2.71441
 Alpha virt. eigenvalues --    2.73584   2.86429   2.87566   3.58137   3.74374
 Alpha virt. eigenvalues --    3.98349   4.06282   4.16675   4.21230   4.32673
 Alpha virt. eigenvalues --    4.37235   4.37698   4.45777   4.46586   4.64650
 Alpha virt. eigenvalues --    4.72274   5.03085   5.09578   5.25095   5.27831
 Alpha virt. eigenvalues --    5.43681   5.69619   6.06577   6.55614   6.69758
 Alpha virt. eigenvalues --    6.79650   7.10584   7.20420   7.26878   7.27367
 Alpha virt. eigenvalues --    7.36242   7.36577   7.49368   7.79486   7.93227
 Alpha virt. eigenvalues --    8.62001  15.13636
          Condensed to atoms (all electrons):
               1          2          3
     1  O    7.945327   0.266104   0.266224
     2  H    0.266104   0.452297   0.023955
     3  H    0.266224   0.023955   0.489809
 Mulliken charges:
               1
     1  O   -0.477655
     2  H    0.257644
     3  H    0.220012
 Sum of Mulliken charges =   0.00000
 Mulliken charges with hydrogens summed into heavy atoms:
               1
     1  O    0.000000
 Electronic spatial extent (au):  <R**2>=             19.8391
 Charge=              0.0000 electrons
 Dipole moment (field-independent basis, Debye):
    X=             -0.0178    Y=             -1.9025    Z=              0.0000  Tot=              1.9025
 Quadrupole moment (field-independent basis, Debye-Ang):
   XX=             -3.9160   YY=             -6.4366   ZZ=             -7.6301
   XY=             -0.1630   XZ=              0.0000   YZ=              0.0000
 Traceless Quadrupole moment (field-independent basis, Debye-Ang):
   XX=              2.0783   YY=             -0.4424   ZZ=             -1.6359
   XY=             -0.1630   XZ=              0.0000   YZ=              0.0000
 Octapole moment (field-independent basis, Debye-Ang**2):
  XXX=             -0.0644  YYY=             -1.0064  ZZZ=              0.0000  XYY=              0.1128
  XXY=             -1.4957  XXZ=              0.0000  XZZ=             -0.0258  YZZ=             -0.2246
  YYZ=              0.0000  XYZ=             -0.0000
 Hexadecapole moment (field-independent basis, Debye-Ang**3):
 XXXX=             -5.8997 YYYY=             -7.4374 ZZZZ=             -6.8519 XXXY=             -0.0190
 XXXZ=             -0.0000 YYYX=             -0.0023 YYYZ=              0.0000 ZZZX=             -0.0000
 ZZZY=              0.0000 XXYY=             -1.9337 XXZZ=             -2.5523 YYZZ=             -2.4245
 XXYZ=             -0.0000 YYXZ=              0.0000 ZZXY=              0.0386
 N-N= 8.937371797347D+00 E-N=-1.984481292042D+02  KE= 7.585082586056D+01
 Symmetry A'   KE= 7.138705266373D+01
 Symmetry A"   KE= 4.463773196826D+00
 Leave Link  601 at Wed Feb  8 13:57:56 2023, MaxMem=   754974720 cpu:               0.7 elap:               0.3
 (Enter /opt/cluster/programs/g16-c.01/g16/l9999.exe)
 Unable to Open any file for archive entry.
 1\1\GINC-NODE62\SP\RCCSD(T)-FC\Aug-CC-pVTZ\H2O1\BOITTIER\08-Feb-2023\0
 \\#P CCSD(T)/aug-cc-pVTZ scf(maxcycle=200)\\Gaussian input\\0,1\O,0,0.
 ,0.11751,0.\H,0,0.7973622306,-0.5007896629,0.\H,0,-0.8154095736,-0.387
 2555171,0.\\Version=ES64L-G16RevC.01\State=1-A'\HF=-76.0556783\MP2=-76
 .3257917\MP3=-76.3280375\MP4D=-76.3329583\MP4DQ=-76.3288149\MP4SDQ=-76
 .3308082\CCSD=-76.3303053\CCSD(T)=-76.3391731\RMSD=4.625e-09\PG=CS [SG
 (H2O1)]\\@
 The archive entry for this job was punched.


 THEORY:  SUPPOSITION WHICH HAS SCIENTIFIC BASIS,
          BUT NOT EXPERIMENTALLY PROVEN.
 FACT:    A THEORY WHICH HAS BEEN PROVEN BY ENOUGH 
          MONEY TO PAY FOR THE EXPERIMENTS.

                          --  THE WIZARD OF ID
 Job cpu time:       0 days  0 hours  2 minutes 30.5 seconds.
 Elapsed time:       0 days  0 hours  1 minutes 12.2 seconds.
 File lengths (MBytes):  RWF=     75 Int=      0 D2E=      0 Chk=      2 Scr=      1
 Normal termination of Gaussian 16 at Wed Feb  8 13:57:56 2023.
