 Entering Gaussian System, Link 0=/opt/cluster/programs/g16-c.01/g16/g16
 Input=/scratch/boittier/jobs/tmp.7261689/gaussian_25_water_ccsdt_atz.com
 Output=/scratch/boittier/jobs/tmp.7261689/gaussian_25_water_ccsdt_atz.out
 Initial command:
 /opt/cluster/programs/g16-c.01/g16/l1.exe "/scratch/boittier/jobs/tmp.7261689/Gau-102713.inp" -scrdir="/scratch/boittier/jobs/tmp.7261689/"
 Entering Link 1 = /opt/cluster/programs/g16-c.01/g16/l1.exe PID=    102714.
  
 Copyright (c) 1988-2019, Gaussian, Inc.  All Rights Reserved.
  
 This is part of the Gaussian(R) 16 program.  It is based on
 the Gaussian(R) 09 system (copyright 2009, Gaussian, Inc.),
 the Gaussian(R) 03 system (copyright 2003, Gaussian, Inc.),
 the Gaussian(R) 98 system (copyright 1998, Gaussian, Inc.),
 the Gaussian(R) 94 system (copyright 1995, Gaussian, Inc.),
 the Gaussian 92(TM) system (copyright 1992, Gaussian, Inc.),
 the Gaussian 90(TM) system (copyright 1990, Gaussian, Inc.),
 the Gaussian 88(TM) system (copyright 1988, Gaussian, Inc.),
 the Gaussian 86(TM) system (copyright 1986, Carnegie Mellon
 University), and the Gaussian 82(TM) system (copyright 1983,
 Carnegie Mellon University). Gaussian is a federally registered
 trademark of Gaussian, Inc.
  
 This software contains proprietary and confidential information,
 including trade secrets, belonging to Gaussian, Inc.
  
 This software is provided under written license and may be
 used, copied, transmitted, or stored only in accord with that
 written license.
  
 The following legend is applicable only to US Government
 contracts under FAR:
  
                    RESTRICTED RIGHTS LEGEND
  
 Use, reproduction and disclosure by the US Government is
 subject to restrictions as set forth in subparagraphs (a)
 and (c) of the Commercial Computer Software - Restricted
 Rights clause in FAR 52.227-19.
  
 Gaussian, Inc.
 340 Quinnipiac St., Bldg. 40, Wallingford CT 06492
  
  
 ---------------------------------------------------------------
 Warning -- This program may not be used in any manner that
 competes with the business of Gaussian, Inc. or will provide
 assistance to any competitor of Gaussian, Inc.  The licensee
 of this program is prohibited from giving any competitor of
 Gaussian, Inc. access to this program.  By using this program,
 the user acknowledges that Gaussian, Inc. is engaged in the
 business of creating and licensing software in the field of
 computational chemistry and represents and warrants to the
 licensee that it is not a competitor of Gaussian, Inc. and that
 it will not use this program in any manner prohibited above.
 ---------------------------------------------------------------
  

 Cite this work as:
 Gaussian 16, Revision C.01,
 M. J. Frisch, G. W. Trucks, H. B. Schlegel, G. E. Scuseria, 
 M. A. Robb, J. R. Cheeseman, G. Scalmani, V. Barone, 
 G. A. Petersson, H. Nakatsuji, X. Li, M. Caricato, A. V. Marenich, 
 J. Bloino, B. G. Janesko, R. Gomperts, B. Mennucci, H. P. Hratchian, 
 J. V. Ortiz, A. F. Izmaylov, J. L. Sonnenberg, D. Williams-Young, 
 F. Ding, F. Lipparini, F. Egidi, J. Goings, B. Peng, A. Petrone, 
 T. Henderson, D. Ranasinghe, V. G. Zakrzewski, J. Gao, N. Rega, 
 G. Zheng, W. Liang, M. Hada, M. Ehara, K. Toyota, R. Fukuda, 
 J. Hasegawa, M. Ishida, T. Nakajima, Y. Honda, O. Kitao, H. Nakai, 
 T. Vreven, K. Throssell, J. A. Montgomery, Jr., J. E. Peralta, 
 F. Ogliaro, M. J. Bearpark, J. J. Heyd, E. N. Brothers, K. N. Kudin, 
 V. N. Staroverov, T. A. Keith, R. Kobayashi, J. Normand, 
 K. Raghavachari, A. P. Rendell, J. C. Burant, S. S. Iyengar, 
 J. Tomasi, M. Cossi, J. M. Millam, M. Klene, C. Adamo, R. Cammi, 
 J. W. Ochterski, R. L. Martin, K. Morokuma, O. Farkas, 
 J. B. Foresman, and D. J. Fox, Gaussian, Inc., Wallingford CT, 2019.
 
 ******************************************
 Gaussian 16:  ES64L-G16RevC.01  3-Jul-2019
                 8-Feb-2023 
 ******************************************
 %nproc=4
 Will use up to    4 processors via shared memory.
 %mem=5760MB
 %chk=gaussian_25_water_ccsdt_atz.chk
 ----------------------------------------
 #P CCSD(T)/aug-cc-pVTZ scf(maxcycle=200)
 ----------------------------------------
 1/38=1,172=1/1;
 2/12=2,17=6,18=5,40=1/2;
 3/5=16,6=1,7=10,11=9,25=1,30=1/1,2,3;
 4//1;
 5/5=2,7=200,38=5/2;
 8/6=4,9=120000,10=1/1,4;
 9/5=7,14=2/13;
 6/7=2,8=2,9=2,10=2/1;
 99/5=1,9=1/99;
 Leave Link    1 at Wed Feb  8 13:49:02 2023, MaxMem=   754974720 cpu:               0.1 elap:               0.0
 (Enter /opt/cluster/programs/g16-c.01/g16/l101.exe)
 --------------
 Gaussian input
 --------------
 Symbolic Z-matrix:
 Charge =  0 Multiplicity = 1
 O                     0.        0.11751   0. 
 H                     0.71834  -0.43951   0. 
 H                    -0.64469  -0.59246   0. 
 
 ITRead=  0  0  0
 MicOpt= -1 -1 -1
 NAtoms=      3 NQM=        3 NQMF=       0 NMMI=      0 NMMIF=      0
                NMic=       0 NMicF=      0.
                    Isotopes and Nuclear Properties:
 (Nuclear quadrupole moments (NQMom) in fm**2, nuclear magnetic moments (NMagM)
  in nuclear magnetons)

  Atom         1           2           3
 IAtWgt=          16           1           1
 AtmWgt=  15.9949146   1.0078250   1.0078250
 NucSpn=           0           1           1
 AtZEff=  -0.0000000  -0.0000000  -0.0000000
 NQMom=    0.0000000   0.0000000   0.0000000
 NMagM=    0.0000000   2.7928460   2.7928460
 AtZNuc=   8.0000000   1.0000000   1.0000000
 Leave Link  101 at Wed Feb  8 13:49:03 2023, MaxMem=   754974720 cpu:               0.4 elap:               0.2
 (Enter /opt/cluster/programs/g16-c.01/g16/l202.exe)
                          Input orientation:                          
 ---------------------------------------------------------------------
 Center     Atomic      Atomic             Coordinates (Angstroms)
 Number     Number       Type             X           Y           Z
 ---------------------------------------------------------------------
      1          8           0        0.000000    0.117510    0.000000
      2          1           0        0.718337   -0.439511    0.000000
      3          1           0       -0.644690   -0.592459    0.000000
 ---------------------------------------------------------------------
                    Distance matrix (angstroms):
                    1          2          3
     1  O    0.000000
     2  H    0.909000   0.000000
     3  H    0.959000   1.371581   0.000000
 Stoichiometry    H2O
 Framework group  CS[SG(H2O)]
 Deg. of freedom     3
 Full point group                 CS      NOp   2
 Largest Abelian subgroup         CS      NOp   2
 Largest concise Abelian subgroup C1      NOp   1
                         Standard orientation:                         
 ---------------------------------------------------------------------
 Center     Atomic      Atomic             Coordinates (Angstroms)
 Number     Number       Type             X           Y           Z
 ---------------------------------------------------------------------
      1          8           0        0.000000    0.126913    0.000000
      2          1           0        0.684803   -0.470855    0.000000
      3          1           0       -0.684803   -0.544448    0.000000
 ---------------------------------------------------------------------
 Rotational constants (GHZ):         709.3456877         528.4561861         302.8417751
 Leave Link  202 at Wed Feb  8 13:49:03 2023, MaxMem=   754974720 cpu:               0.1 elap:               0.0
 (Enter /opt/cluster/programs/g16-c.01/g16/l301.exe)
 Standard basis: Aug-CC-pVTZ (5D, 7F)
 Ernie: Thresh=  0.10000D-02 Tol=  0.10000D-05 Strict=F.
 Ernie:  3 primitive shells out of 52 were deleted.
 There are    73 symmetry adapted cartesian basis functions of A'  symmetry.
 There are    32 symmetry adapted cartesian basis functions of A"  symmetry.
 There are    62 symmetry adapted basis functions of A'  symmetry.
 There are    30 symmetry adapted basis functions of A"  symmetry.
    92 basis functions,   126 primitive gaussians,   105 cartesian basis functions
     5 alpha electrons        5 beta electrons
       nuclear repulsion energy         9.4574489906 Hartrees.
 IExCor=    0 DFT=F Ex=HF Corr=None ExCW=0 ScaHFX=  1.000000
 ScaDFX=  1.000000  1.000000  1.000000  1.000000 ScalE2=  1.000000  1.000000
 IRadAn=      5 IRanWt=     -1 IRanGd=            0 ICorTp=0 IEmpDi=  4
 NAtoms=    3 NActive=    3 NUniq=    3 SFac= 1.00D+00 NAtFMM=   60 NAOKFM=F Big=F
 Integral buffers will be    131072 words long.
 Raffenetti 1 integral format.
 Two-electron integral symmetry is turned on.
 Leave Link  301 at Wed Feb  8 13:49:03 2023, MaxMem=   754974720 cpu:               0.2 elap:               0.1
 (Enter /opt/cluster/programs/g16-c.01/g16/l302.exe)
 NPDir=0 NMtPBC=     1 NCelOv=     1 NCel=       1 NClECP=     1 NCelD=      1
         NCelK=      1 NCelE2=     1 NClLst=     1 CellRange=     0.0.
 One-electron integrals computed using PRISM.
 One-electron integral symmetry used in STVInt
 NBasis=    92 RedAO= T EigKep=  3.47D-04  NBF=    62    30
 NBsUse=    92 1.00D-06 EigRej= -1.00D+00 NBFU=    62    30
 Leave Link  302 at Wed Feb  8 13:49:03 2023, MaxMem=   754974720 cpu:               0.9 elap:               0.3
 (Enter /opt/cluster/programs/g16-c.01/g16/l303.exe)
 DipDrv:  MaxL=1.
 Leave Link  303 at Wed Feb  8 13:49:03 2023, MaxMem=   754974720 cpu:               0.6 elap:               0.2
 (Enter /opt/cluster/programs/g16-c.01/g16/l401.exe)
 ExpMin= 2.53D-02 ExpMax= 1.53D+04 ExpMxC= 5.22D+02 IAcc=3 IRadAn=         5 AccDes= 0.00D+00
 Harris functional with IExCor=  205 and IRadAn=       5 diagonalized for initial guess.
 HarFok:  IExCor=  205 AccDes= 0.00D+00 IRadAn=         5 IDoV= 1 UseB2=F ITyADJ=14
 ICtDFT=  3500011 ScaDFX=  1.000000  1.000000  1.000000  1.000000
 FoFCou: FMM=F IPFlag=           0 FMFlag=      100000 FMFlg1=           0
         NFxFlg=           0 DoJE=T BraDBF=F KetDBF=T FulRan=T
         wScrn=  0.000000 ICntrl=       500 IOpCl=  0 I1Cent=   200000004 NGrid=           0
         NMat0=    1 NMatS0=      1 NMatT0=    0 NMatD0=    1 NMtDS0=    0 NMtDT0=    0
 Petite list used in FoFCou.
 Harris En= -76.1489004183185    
 JPrj=0 DoOrth=F DoCkMO=F.
 Initial guess orbital symmetries:
       Occupied  (A') (A') (A') (A') (A")
       Virtual   (A') (A') (A') (A") (A') (A') (A') (A') (A") (A")
                 (A') (A') (A') (A') (A') (A') (A') (A") (A") (A")
                 (A') (A') (A") (A') (A') (A") (A') (A') (A') (A")
                 (A') (A') (A") (A') (A') (A") (A") (A') (A') (A')
                 (A') (A") (A") (A') (A') (A") (A') (A') (A') (A")
                 (A') (A') (A") (A') (A') (A") (A') (A") (A") (A')
                 (A') (A") (A") (A') (A') (A') (A') (A") (A') (A')
                 (A") (A') (A') (A') (A") (A') (A") (A") (A') (A")
                 (A') (A") (A') (A') (A') (A') (A')
 The electronic state of the initial guess is 1-A'.
 Leave Link  401 at Wed Feb  8 13:49:04 2023, MaxMem=   754974720 cpu:               1.1 elap:               0.3
 (Enter /opt/cluster/programs/g16-c.01/g16/l502.exe)
 Keep R1 ints in memory in symmetry-blocked form, NReq=13818732.
 FoFCou: FMM=F IPFlag=           0 FMFlag=           0 FMFlg1=           0
         NFxFlg=           0 DoJE=F BraDBF=F KetDBF=F FulRan=T
         wScrn=  0.000000 ICntrl=       600 IOpCl=  0 I1Cent=           0 NGrid=           0
         NMat0=    1 NMatS0=   4278 NMatT0=    0 NMatD0=    1 NMtDS0=    0 NMtDT0=    0
 Petite list used in FoFCou.
 Closed shell SCF:
 Using DIIS extrapolation, IDIIS=  1040.
 NGot=   754974720 LenX=   750285684 LenY=   750274218
 Requested convergence on RMS density matrix=1.00D-08 within 200 cycles.
 Requested convergence on MAX density matrix=1.00D-06.
 Requested convergence on             energy=1.00D-06.
 No special actions if energy rises.

 Cycle   1  Pass 1  IDiag  1:
 E= -75.9632481003059    
 DIIS: error= 5.42D-02 at cycle   1 NSaved=   1.
 NSaved= 1 IEnMin= 1 EnMin= -75.9632481003059     IErMin= 1 ErrMin= 5.42D-02
 ErrMax= 5.42D-02  0.00D+00 EMaxC= 1.00D-01 BMatC= 2.10D-01 BMatP= 2.10D-01
 IDIUse=3 WtCom= 4.58D-01 WtEn= 5.42D-01
 Coeff-Com:  0.100D+01
 Coeff-En:   0.100D+01
 Coeff:      0.100D+01
 Gap=     0.452 Goal=   None    Shift=    0.000
 GapD=    0.452 DampG=2.000 DampE=0.500 DampFc=1.0000 IDamp=-1.
 RMSDP=2.20D-03 MaxDP=4.98D-02              OVMax= 1.25D-01

 Cycle   2  Pass 1  IDiag  1:
 E= -76.0183088891148     Delta-E=       -0.055060788809 Rises=F Damp=F
 DIIS: error= 3.41D-02 at cycle   2 NSaved=   2.
 NSaved= 2 IEnMin= 2 EnMin= -76.0183088891148     IErMin= 2 ErrMin= 3.41D-02
 ErrMax= 3.41D-02  0.00D+00 EMaxC= 1.00D-01 BMatC= 6.05D-02 BMatP= 2.10D-01
 IDIUse=3 WtCom= 6.59D-01 WtEn= 3.41D-01
 Coeff-Com:  0.322D+00 0.678D+00
 Coeff-En:   0.191D+00 0.809D+00
 Coeff:      0.278D+00 0.722D+00
 Gap=     0.570 Goal=   None    Shift=    0.000
 RMSDP=1.32D-03 MaxDP=3.55D-02 DE=-5.51D-02 OVMax= 6.48D-02

 Cycle   3  Pass 1  IDiag  1:
 E= -76.0538430335202     Delta-E=       -0.035534144405 Rises=F Damp=F
 DIIS: error= 6.87D-03 at cycle   3 NSaved=   3.
 NSaved= 3 IEnMin= 3 EnMin= -76.0538430335202     IErMin= 3 ErrMin= 6.87D-03
 ErrMax= 6.87D-03  0.00D+00 EMaxC= 1.00D-01 BMatC= 2.66D-03 BMatP= 6.05D-02
 IDIUse=3 WtCom= 9.31D-01 WtEn= 6.87D-02
 Coeff-Com: -0.303D-01 0.141D+00 0.889D+00
 Coeff-En:   0.000D+00 0.000D+00 0.100D+01
 Coeff:     -0.282D-01 0.132D+00 0.897D+00
 Gap=     0.542 Goal=   None    Shift=    0.000
 RMSDP=2.09D-04 MaxDP=4.07D-03 DE=-3.55D-02 OVMax= 1.20D-02

 Cycle   4  Pass 1  IDiag  1:
 E= -76.0554887724653     Delta-E=       -0.001645738945 Rises=F Damp=F
 DIIS: error= 5.07D-04 at cycle   4 NSaved=   4.
 NSaved= 4 IEnMin= 4 EnMin= -76.0554887724653     IErMin= 4 ErrMin= 5.07D-04
 ErrMax= 5.07D-04  0.00D+00 EMaxC= 1.00D-01 BMatC= 1.07D-05 BMatP= 2.66D-03
 IDIUse=3 WtCom= 9.95D-01 WtEn= 5.07D-03
 Coeff-Com:  0.713D-02-0.522D-01-0.258D+00 0.130D+01
 Coeff-En:   0.000D+00 0.000D+00 0.000D+00 0.100D+01
 Coeff:      0.709D-02-0.519D-01-0.257D+00 0.130D+01
 Gap=     0.544 Goal=   None    Shift=    0.000
 RMSDP=3.53D-05 MaxDP=6.55D-04 DE=-1.65D-03 OVMax= 2.08D-03

 Cycle   5  Pass 1  IDiag  1:
 E= -76.0555085627883     Delta-E=       -0.000019790323 Rises=F Damp=F
 DIIS: error= 1.44D-04 at cycle   5 NSaved=   5.
 NSaved= 5 IEnMin= 5 EnMin= -76.0555085627883     IErMin= 5 ErrMin= 1.44D-04
 ErrMax= 1.44D-04  0.00D+00 EMaxC= 1.00D-01 BMatC= 5.33D-07 BMatP= 1.07D-05
 IDIUse=3 WtCom= 9.99D-01 WtEn= 1.44D-03
 Coeff-Com: -0.168D-03 0.437D-02 0.216D-01-0.316D+00 0.129D+01
 Coeff-En:   0.000D+00 0.000D+00 0.000D+00 0.000D+00 0.100D+01
 Coeff:     -0.168D-03 0.437D-02 0.216D-01-0.316D+00 0.129D+01
 Gap=     0.544 Goal=   None    Shift=    0.000
 RMSDP=9.78D-06 MaxDP=2.04D-04 DE=-1.98D-05 OVMax= 6.30D-04

 Cycle   6  Pass 1  IDiag  1:
 E= -76.0555098260390     Delta-E=       -0.000001263251 Rises=F Damp=F
 DIIS: error= 2.03D-05 at cycle   6 NSaved=   6.
 NSaved= 6 IEnMin= 6 EnMin= -76.0555098260390     IErMin= 6 ErrMin= 2.03D-05
 ErrMax= 2.03D-05  0.00D+00 EMaxC= 1.00D-01 BMatC= 1.49D-08 BMatP= 5.33D-07
 IDIUse=1 WtCom= 1.00D+00 WtEn= 0.00D+00
 Coeff-Com: -0.163D-03 0.405D-03 0.874D-03 0.494D-01-0.383D+00 0.133D+01
 Coeff:     -0.163D-03 0.405D-03 0.874D-03 0.494D-01-0.383D+00 0.133D+01
 Gap=     0.544 Goal=   None    Shift=    0.000
 RMSDP=1.79D-06 MaxDP=4.34D-05 DE=-1.26D-06 OVMax= 1.17D-04

 Cycle   7  Pass 1  IDiag  1:
 E= -76.0555098657628     Delta-E=       -0.000000039724 Rises=F Damp=F
 DIIS: error= 2.95D-06 at cycle   7 NSaved=   7.
 NSaved= 7 IEnMin= 7 EnMin= -76.0555098657628     IErMin= 7 ErrMin= 2.95D-06
 ErrMax= 2.95D-06  0.00D+00 EMaxC= 1.00D-01 BMatC= 4.84D-10 BMatP= 1.49D-08
 IDIUse=1 WtCom= 1.00D+00 WtEn= 0.00D+00
 Coeff-Com:  0.262D-04-0.241D-03-0.110D-02 0.907D-02-0.115D-01-0.143D+00
 Coeff-Com:  0.115D+01
 Coeff:      0.262D-04-0.241D-03-0.110D-02 0.907D-02-0.115D-01-0.143D+00
 Coeff:      0.115D+01
 Gap=     0.544 Goal=   None    Shift=    0.000
 RMSDP=2.58D-07 MaxDP=5.35D-06 DE=-3.97D-08 OVMax= 1.68D-05

 Cycle   8  Pass 1  IDiag  1:
 E= -76.0555098668018     Delta-E=       -0.000000001039 Rises=F Damp=F
 DIIS: error= 6.96D-07 at cycle   8 NSaved=   8.
 NSaved= 8 IEnMin= 8 EnMin= -76.0555098668018     IErMin= 8 ErrMin= 6.96D-07
 ErrMax= 6.96D-07  0.00D+00 EMaxC= 1.00D-01 BMatC= 2.43D-11 BMatP= 4.84D-10
 IDIUse=1 WtCom= 1.00D+00 WtEn= 0.00D+00
 Coeff-Com:  0.518D-05 0.145D-04 0.145D-03-0.435D-02 0.234D-01-0.521D-01
 Coeff-Com: -0.198D+00 0.123D+01
 Coeff:      0.518D-05 0.145D-04 0.145D-03-0.435D-02 0.234D-01-0.521D-01
 Coeff:     -0.198D+00 0.123D+01
 Gap=     0.544 Goal=   None    Shift=    0.000
 RMSDP=7.80D-08 MaxDP=1.66D-06 DE=-1.04D-09 OVMax= 4.58D-06

 Cycle   9  Pass 1  IDiag  1:
 E= -76.0555098668629     Delta-E=       -0.000000000061 Rises=F Damp=F
 DIIS: error= 1.29D-07 at cycle   9 NSaved=   9.
 NSaved= 9 IEnMin= 9 EnMin= -76.0555098668629     IErMin= 9 ErrMin= 1.29D-07
 ErrMax= 1.29D-07  0.00D+00 EMaxC= 1.00D-01 BMatC= 5.09D-13 BMatP= 2.43D-11
 IDIUse=1 WtCom= 1.00D+00 WtEn= 0.00D+00
 Coeff-Com: -0.155D-05 0.190D-05-0.116D-04 0.736D-03-0.446D-02 0.131D-01
 Coeff-Com:  0.225D-01-0.283D+00 0.125D+01
 Coeff:     -0.155D-05 0.190D-05-0.116D-04 0.736D-03-0.446D-02 0.131D-01
 Coeff:      0.225D-01-0.283D+00 0.125D+01
 Gap=     0.544 Goal=   None    Shift=    0.000
 RMSDP=1.35D-08 MaxDP=3.03D-07 DE=-6.11D-11 OVMax= 6.20D-07

 Cycle  10  Pass 1  IDiag  1:
 E= -76.0555098668640     Delta-E=       -0.000000000001 Rises=F Damp=F
 DIIS: error= 2.71D-08 at cycle  10 NSaved=  10.
 NSaved=10 IEnMin=10 EnMin= -76.0555098668640     IErMin=10 ErrMin= 2.71D-08
 ErrMax= 2.71D-08  0.00D+00 EMaxC= 1.00D-01 BMatC= 2.02D-14 BMatP= 5.09D-13
 IDIUse=1 WtCom= 1.00D+00 WtEn= 0.00D+00
 Coeff-Com:  0.351D-06-0.102D-05-0.270D-06-0.115D-03 0.769D-03-0.268D-02
 Coeff-Com: -0.121D-02 0.514D-01-0.393D+00 0.135D+01
 Coeff:      0.351D-06-0.102D-05-0.270D-06-0.115D-03 0.769D-03-0.268D-02
 Coeff:     -0.121D-02 0.514D-01-0.393D+00 0.135D+01
 Gap=     0.544 Goal=   None    Shift=    0.000
 RMSDP=2.87D-09 MaxDP=5.53D-08 DE=-1.09D-12 OVMax= 1.42D-07

 SCF Done:  E(RHF) =  -76.0555098669     A.U. after   10 cycles
            NFock= 10  Conv=0.29D-08     -V/T= 1.9997
 KE= 7.607763086879D+01 PE=-1.995528580527D+02 EE= 3.796226832645D+01
 Leave Link  502 at Wed Feb  8 13:49:05 2023, MaxMem=   754974720 cpu:               4.7 elap:               1.7
 (Enter /opt/cluster/programs/g16-c.01/g16/l801.exe)
 Windowed orbitals will be sorted by symmetry type.
 ExpMin= 2.53D-02 ExpMax= 1.53D+04 ExpMxC= 5.22D+02 IAcc=3 IRadAn=         5 AccDes= 0.00D+00
 HarFok:  IExCor=  205 AccDes= 0.00D+00 IRadAn=         5 IDoV=-2 UseB2=F ITyADJ=14
 ICtDFT= 12500011 ScaDFX=  1.000000  1.000000  1.000000  1.000000
 Largest valence mixing into a core orbital is  1.10D-04
 Largest core mixing into a valence orbital is  1.61D-05
 Range of M.O.s used for correlation:     2    92
 NBasis=    92 NAE=     5 NBE=     5 NFC=     1 NFV=     0
 NROrb=     91 NOA=     4 NOB=     4 NVA=    87 NVB=    87

 **** Warning!!: The largest alpha MO coefficient is  0.16407060D+02

 Leave Link  801 at Wed Feb  8 13:49:06 2023, MaxMem=   754974720 cpu:               0.8 elap:               0.4
 (Enter /opt/cluster/programs/g16-c.01/g16/l804.exe)
 Closed-shell transformation, MDV=   754974720 ITran=4 ISComp=2.
 Unit  1 TFree=        277501 TCopy=        343607.
 Semi-Direct transformation.
 ModeAB=           2 MOrb=             4 LenV=     754586778
 LASXX=       736380 LTotXX=      736380 LenRXX=      736380
 LTotAB=      763744 MaxLAS=     2025660 LenRXY=     2025660
 NonZer=     2107560 LenScr=     3929600 LnRSAI=           0
 LnScr1=           0 LExtra=           0 Total=      6691640
 MaxDsk=          -1 SrtSym=           F ITran=            4
 DoSDTr:  NPSUse=  4
 JobTyp=0 Pass  1:  I=   1 to   4.
 (rs|ai) integrals will be sorted in core.
 Complete sort for first half transformation.
 First half transformation complete.
 Complete sort for second half transformation.
 Second half transformation complete.
 Spin components of T(2) and E(2):
     alpha-alpha T2 =       0.7999592485D-02 E2=     -0.3250428269D-01
     alpha-beta  T2 =       0.4624342310D-01 E2=     -0.2024691628D+00
     beta-beta   T2 =       0.7999592485D-02 E2=     -0.3250428269D-01
 ANorm=    0.1030651545D+01
 E2 =    -0.2674777282D+00 EUMP2 =    -0.76322987595046D+02
 Leave Link  804 at Wed Feb  8 13:49:09 2023, MaxMem=   754974720 cpu:               8.7 elap:               2.9
 (Enter /opt/cluster/programs/g16-c.01/g16/l913.exe)
 CIDS:  MDV=   754974720.
 Frozen-core window:  NFC=   1 NFV=   0.
 IFCWin=0 IBDFC=1 NFBD=     0     0 NFCmp=     0     0 NFFFC=     0     0
 Using DD3R+UMP44R for 1st iteration.
 Using DD4RQ for 2nd and later iterations.
 Keep R2 and R3 ints in memory in symmetry-blocked form, NReq=13979827.
 FoFCou: FMM=F IPFlag=           0 FMFlag=           0 FMFlg1=           0
         NFxFlg=           0 DoJE=F BraDBF=F KetDBF=F FulRan=T
         wScrn=  0.000000 ICntrl=       600 IOpCl=  0 I1Cent=           0 NGrid=           0
         NMat0=    1 NMatS0=   4278 NMatT0=    0 NMatD0=    1 NMtDS0=    0 NMtDT0=    0
 Petite list used in FoFCou.
 CIDS: In Core Option IDoMem=           1.
 CCSD(T)
 =======
 Iterations=  50 Convergence= 0.100D-06
 Produce multiple copies of IABC intergrals
 Iteration Nr.   1
 **********************
 DD1Dir will call FoFMem   1 times, MxPair=        20
 NAB=    10 NAA=     0 NBB=     0.
 MP4(R+Q)=  0.40146777D-02
 Maximum subspace dimension=  5
 A-vector RMS=  2.7739482D-03 Max=  1.1531634D-02 conv= 1.00D-05.
 RLE energy=       -0.2663628605
 E3=       -0.29358333D-02        EUMP3=      -0.76325923428D+02
 E4(DQ)=   -0.48506634D-03        UMP4(DQ)=   -0.76326408495D+02
 E4(SDQ)=  -0.22992650D-02        UMP4(SDQ)=  -0.76328222693D+02
 VARIATIONAL ENERGIES WITH THE FIRST-ORDER WAVEFUNCTION:
 DE(Corr)= -0.26635820     E(Corr)=     -76.321868067    
 NORM(A)=   0.10304929D+01
 Iteration Nr.   2
 **********************
 DD1Dir will call FoFMem   1 times, MxPair=        20
 NAB=    10 NAA=     0 NBB=     0.
 A-vector RMS=  2.8931204D-04 Max=  2.0717169D-03 conv= 1.00D-05.
 RLE energy=       -0.2719237869
 DE(Corr)= -0.27155872     E(CORR)=     -76.327068585     Delta=-5.20D-03
 NORM(A)=   0.10324812D+01
 Iteration Nr.   3
 **********************
 DD1Dir will call FoFMem   1 times, MxPair=        20
 NAB=    10 NAA=     0 NBB=     0.
 A-vector RMS=  3.7789488D-04 Max=  2.0818987D-03 conv= 1.00D-05.
 RLE energy=       -0.2722112974
 DE(Corr)= -0.27186285     E(CORR)=     -76.327372721     Delta=-3.04D-04
 NORM(A)=   0.10328601D+01
 Iteration Nr.   4
 **********************
 DD1Dir will call FoFMem   1 times, MxPair=        20
 NAB=    10 NAA=     0 NBB=     0.
 A-vector RMS=  5.6978130D-05 Max=  3.4419936D-04 conv= 1.00D-05.
 RLE energy=       -0.2722418845
 DE(Corr)= -0.27221635     E(CORR)=     -76.327726221     Delta=-3.54D-04
 NORM(A)=   0.10329627D+01
 Iteration Nr.   5
 **********************
 DD1Dir will call FoFMem   1 times, MxPair=        20
 NAB=    10 NAA=     0 NBB=     0.
 A-vector RMS=  2.7878202D-05 Max=  1.7938360D-04 conv= 1.00D-05.
 RLE energy=       -0.2722526443
 DE(Corr)= -0.27224791     E(CORR)=     -76.327757772     Delta=-3.16D-05
 NORM(A)=   0.10329828D+01
 Iteration Nr.   6
 **********************
 DD1Dir will call FoFMem   1 times, MxPair=        20
 NAB=    10 NAA=     0 NBB=     0.
 A-vector RMS=  6.5255086D-06 Max=  3.9910298D-05 conv= 1.00D-05.
 RLE energy=       -0.2722494197
 DE(Corr)= -0.27225022     E(CORR)=     -76.327760087     Delta=-2.31D-06
 NORM(A)=   0.10329846D+01
 Iteration Nr.   7
 **********************
 DD1Dir will call FoFMem   1 times, MxPair=        20
 NAB=    10 NAA=     0 NBB=     0.
 A-vector RMS=  2.0758708D-06 Max=  1.0959234D-05 conv= 1.00D-05.
 RLE energy=       -0.2722494053
 DE(Corr)= -0.27225020     E(CORR)=     -76.327760063     Delta= 2.33D-08
 NORM(A)=   0.10329851D+01
 Iteration Nr.   8
 **********************
 DD1Dir will call FoFMem   1 times, MxPair=        20
 NAB=    10 NAA=     0 NBB=     0.
 A-vector RMS=  8.0852827D-07 Max=  5.2566386D-06 conv= 1.00D-05.
 RLE energy=       -0.2722498974
 DE(Corr)= -0.27224998     E(CORR)=     -76.327759850     Delta= 2.13D-07
 NORM(A)=   0.10329854D+01
 Iteration Nr.   9
 **********************
 DD1Dir will call FoFMem   1 times, MxPair=        20
 NAB=    10 NAA=     0 NBB=     0.
 A-vector RMS=  1.6230922D-07 Max=  9.1021373D-07 conv= 1.00D-05.
 RLE energy=       -0.2722499779
 DE(Corr)= -0.27224999     E(CORR)=     -76.327759857     Delta=-6.85D-09
 NORM(A)=   0.10329856D+01
 CI/CC converged in    9 iterations to DelEn=-6.85D-09 Conv= 1.00D-07 ErrA1= 1.62D-07 Conv= 1.00D-05
 Wavefunction amplitudes converged. E(Corr)=     -76.327759857    
 Largest amplitude= 2.03D-02
 IPart=  1 IA=    6   11.23% done.
 IPart=  3 IA=   11   21.79% done.
 IPart=  4 IA=   16   31.68% done.
 IPart=  3 IA=   21   40.90% done.
 IPart=  3 IA=   27   51.08% done.
 IPart=  2 IA=   33   60.30% done.
 IPart=  1 IA=   41   71.10% done.
 IPart=  1 IA=   49   80.19% done.
 IPart=  1 IA=   61   90.62% done.
 Time for triples=        8.31 seconds.
 T4(CCSD)= -0.87878911D-02
 T5(CCSD)=  0.30683377D-03
 CCSD(T)= -0.76336240915D+02
 Discarding MO integrals.
 Leave Link  913 at Wed Feb  8 13:49:30 2023, MaxMem=   754974720 cpu:              63.3 elap:              21.7
 (Enter /opt/cluster/programs/g16-c.01/g16/l601.exe)
 Copying SCF densities to generalized density rwf, IOpCl= 0 IROHF=0.

 **********************************************************************

            Population analysis using the SCF Density.

 **********************************************************************

 Orbital symmetries:
       Occupied  (A') (A') (A') (A') (A")
       Virtual   (A') (A') (A') (A") (A') (A') (A') (A') (A") (A")
                 (A') (A') (A') (A') (A') (A') (A') (A") (A") (A')
                 (A") (A') (A") (A') (A") (A') (A') (A') (A') (A")
                 (A') (A") (A') (A') (A') (A") (A") (A') (A') (A')
                 (A') (A") (A") (A') (A') (A") (A') (A') (A') (A")
                 (A') (A') (A") (A') (A') (A') (A") (A") (A") (A')
                 (A') (A") (A") (A') (A') (A') (A') (A") (A') (A')
                 (A") (A') (A') (A') (A") (A') (A") (A') (A") (A")
                 (A') (A") (A') (A') (A') (A') (A')
 The electronic state is 1-A'.
 Alpha  occ. eigenvalues --  -20.56676  -1.37485  -0.70923  -0.60937  -0.51514
 Alpha virt. eigenvalues --    0.02897   0.04841   0.13429   0.15898   0.17726
 Alpha virt. eigenvalues --    0.18544   0.22669   0.24766   0.26913   0.29203
 Alpha virt. eigenvalues --    0.30574   0.36948   0.43955   0.47220   0.59497
 Alpha virt. eigenvalues --    0.66987   0.70325   0.72740   0.73074   0.84786
 Alpha virt. eigenvalues --    0.86064   0.89282   0.90411   0.91755   0.92771
 Alpha virt. eigenvalues --    0.94606   0.94822   1.02571   1.05845   1.08103
 Alpha virt. eigenvalues --    1.11142   1.18935   1.20274   1.25612   1.47050
 Alpha virt. eigenvalues --    1.52163   1.57712   1.80303   1.91785   1.98695
 Alpha virt. eigenvalues --    2.17002   2.27194   2.32344   2.33009   2.41124
 Alpha virt. eigenvalues --    2.42760   2.44350   2.52631   2.65231   2.69136
 Alpha virt. eigenvalues --    2.74292   2.83845   2.89353   3.63340   3.72428
 Alpha virt. eigenvalues --    4.06969   4.08714   4.11608   4.16517   4.35903
 Alpha virt. eigenvalues --    4.38088   4.39985   4.43495   4.60060   4.78844
 Alpha virt. eigenvalues --    4.95437   5.16135   5.19420   5.33354   5.43616
 Alpha virt. eigenvalues --    5.64242   5.65672   6.28247   6.48609   6.71237
 Alpha virt. eigenvalues --    7.09912   7.15167   7.21706   7.27160   7.31846
 Alpha virt. eigenvalues --    7.43381   7.44668   7.60039   7.78801   8.11538
 Alpha virt. eigenvalues --    8.99301  16.65296
          Condensed to atoms (all electrons):
               1          2          3
     1  O    7.861086   0.269067   0.273261
     2  H    0.269067   0.537472   0.017239
     3  H    0.273261   0.017239   0.482308
 Mulliken charges:
               1
     1  O   -0.403414
     2  H    0.176222
     3  H    0.227192
 Sum of Mulliken charges =  -0.00000
 Mulliken charges with hydrogens summed into heavy atoms:
               1
     1  O   -0.000000
 Electronic spatial extent (au):  <R**2>=             19.1464
 Charge=             -0.0000 electrons
 Dipole moment (field-independent basis, Debye):
    X=              0.0279    Y=             -2.1187    Z=              0.0000  Tot=              2.1189
 Quadrupole moment (field-independent basis, Debye-Ang):
   XX=             -4.7269   YY=             -5.9231   ZZ=             -7.4901
   XY=              0.1034   XZ=              0.0000   YZ=              0.0000
 Traceless Quadrupole moment (field-independent basis, Debye-Ang):
   XX=              1.3198   YY=              0.1236   ZZ=             -1.4434
   XY=              0.1034   XZ=              0.0000   YZ=              0.0000
 Octapole moment (field-independent basis, Debye-Ang**2):
  XXX=              0.0793  YYY=             -1.3663  ZZZ=              0.0000  XYY=             -0.0825
  XXY=             -1.2752  XXZ=              0.0000  XZZ=              0.0265  YZZ=             -0.2855
  YYZ=              0.0000  XYZ=              0.0000
 Hexadecapole moment (field-independent basis, Debye-Ang**3):
 XXXX=             -6.0755 YYYY=             -7.0566 ZZZZ=             -6.6046 XXXY=             -0.0325
 XXXZ=              0.0000 YYYX=              0.0087 YYYZ=              0.0000 ZZZX=              0.0000
 ZZZY=              0.0000 XXYY=             -1.7747 XXZZ=             -2.3289 YYZZ=             -2.3487
 XXYZ=              0.0000 YYXZ=              0.0000 ZZXY=             -0.0324
 N-N= 9.457448990571D+00 E-N=-1.995528580127D+02  KE= 7.607763086879D+01
 Symmetry A'   KE= 7.160486864697D+01
 Symmetry A"   KE= 4.472762221815D+00
 Leave Link  601 at Wed Feb  8 13:49:31 2023, MaxMem=   754974720 cpu:               0.9 elap:               0.5
 (Enter /opt/cluster/programs/g16-c.01/g16/l9999.exe)
 Unable to Open any file for archive entry.
 1\1\GINC-NODE64\SP\RCCSD(T)-FC\Aug-CC-pVTZ\H2O1\BOITTIER\08-Feb-2023\0
 \\#P CCSD(T)/aug-cc-pVTZ scf(maxcycle=200)\\Gaussian input\\0,1\O,0,0.
 ,0.11751,0.\H,0,0.7183372325,-0.4395112028,0.\H,0,-0.6446897571,-0.592
 4590958,0.\\Version=ES64L-G16RevC.01\State=1-A'\HF=-76.0555099\MP2=-76
 .3229876\MP3=-76.3259234\MP4D=-76.3304232\MP4DQ=-76.3264085\MP4SDQ=-76
 .3282227\CCSD=-76.3277599\CCSD(T)=-76.3362409\RMSD=2.867e-09\PG=CS [SG
 (H2O1)]\\@
 The archive entry for this job was punched.


 NEVER LISTEN TO CRITICISM
 OR YOU'LL BE DOIN' EVERYBODY ELSE'S THING BUT BUT YOUR OWN.

                                               -- ANDY CAPP
 Job cpu time:       0 days  0 hours  1 minutes 22.2 seconds.
 Elapsed time:       0 days  0 hours  0 minutes 28.5 seconds.
 File lengths (MBytes):  RWF=     75 Int=      0 D2E=      0 Chk=      2 Scr=      1
 Normal termination of Gaussian 16 at Wed Feb  8 13:49:31 2023.
