 Entering Gaussian System, Link 0=/opt/cluster/programs/g16-c.01/g16/g16
 Input=/scratch/boittier/jobs/tmp.7262603/gaussian_78_water_hf_pdz.com
 Output=/scratch/boittier/jobs/tmp.7262603/gaussian_78_water_hf_pdz.out
 Initial command:
 /opt/cluster/programs/g16-c.01/g16/l1.exe "/scratch/boittier/jobs/tmp.7262603/Gau-49593.inp" -scrdir="/scratch/boittier/jobs/tmp.7262603/"
 Entering Link 1 = /opt/cluster/programs/g16-c.01/g16/l1.exe PID=     49594.
  
 Copyright (c) 1988-2019, Gaussian, Inc.  All Rights Reserved.
  
 This is part of the Gaussian(R) 16 program.  It is based on
 the Gaussian(R) 09 system (copyright 2009, Gaussian, Inc.),
 the Gaussian(R) 03 system (copyright 2003, Gaussian, Inc.),
 the Gaussian(R) 98 system (copyright 1998, Gaussian, Inc.),
 the Gaussian(R) 94 system (copyright 1995, Gaussian, Inc.),
 the Gaussian 92(TM) system (copyright 1992, Gaussian, Inc.),
 the Gaussian 90(TM) system (copyright 1990, Gaussian, Inc.),
 the Gaussian 88(TM) system (copyright 1988, Gaussian, Inc.),
 the Gaussian 86(TM) system (copyright 1986, Carnegie Mellon
 University), and the Gaussian 82(TM) system (copyright 1983,
 Carnegie Mellon University). Gaussian is a federally registered
 trademark of Gaussian, Inc.
  
 This software contains proprietary and confidential information,
 including trade secrets, belonging to Gaussian, Inc.
  
 This software is provided under written license and may be
 used, copied, transmitted, or stored only in accord with that
 written license.
  
 The following legend is applicable only to US Government
 contracts under FAR:
  
                    RESTRICTED RIGHTS LEGEND
  
 Use, reproduction and disclosure by the US Government is
 subject to restrictions as set forth in subparagraphs (a)
 and (c) of the Commercial Computer Software - Restricted
 Rights clause in FAR 52.227-19.
  
 Gaussian, Inc.
 340 Quinnipiac St., Bldg. 40, Wallingford CT 06492
  
  
 ---------------------------------------------------------------
 Warning -- This program may not be used in any manner that
 competes with the business of Gaussian, Inc. or will provide
 assistance to any competitor of Gaussian, Inc.  The licensee
 of this program is prohibited from giving any competitor of
 Gaussian, Inc. access to this program.  By using this program,
 the user acknowledges that Gaussian, Inc. is engaged in the
 business of creating and licensing software in the field of
 computational chemistry and represents and warrants to the
 licensee that it is not a competitor of Gaussian, Inc. and that
 it will not use this program in any manner prohibited above.
 ---------------------------------------------------------------
  

 Cite this work as:
 Gaussian 16, Revision C.01,
 M. J. Frisch, G. W. Trucks, H. B. Schlegel, G. E. Scuseria, 
 M. A. Robb, J. R. Cheeseman, G. Scalmani, V. Barone, 
 G. A. Petersson, H. Nakatsuji, X. Li, M. Caricato, A. V. Marenich, 
 J. Bloino, B. G. Janesko, R. Gomperts, B. Mennucci, H. P. Hratchian, 
 J. V. Ortiz, A. F. Izmaylov, J. L. Sonnenberg, D. Williams-Young, 
 F. Ding, F. Lipparini, F. Egidi, J. Goings, B. Peng, A. Petrone, 
 T. Henderson, D. Ranasinghe, V. G. Zakrzewski, J. Gao, N. Rega, 
 G. Zheng, W. Liang, M. Hada, M. Ehara, K. Toyota, R. Fukuda, 
 J. Hasegawa, M. Ishida, T. Nakajima, Y. Honda, O. Kitao, H. Nakai, 
 T. Vreven, K. Throssell, J. A. Montgomery, Jr., J. E. Peralta, 
 F. Ogliaro, M. J. Bearpark, J. J. Heyd, E. N. Brothers, K. N. Kudin, 
 V. N. Staroverov, T. A. Keith, R. Kobayashi, J. Normand, 
 K. Raghavachari, A. P. Rendell, J. C. Burant, S. S. Iyengar, 
 J. Tomasi, M. Cossi, J. M. Millam, M. Klene, C. Adamo, R. Cammi, 
 J. W. Ochterski, R. L. Martin, K. Morokuma, O. Farkas, 
 J. B. Foresman, and D. J. Fox, Gaussian, Inc., Wallingford CT, 2019.
 
 ******************************************
 Gaussian 16:  ES64L-G16RevC.01  3-Jul-2019
                 8-Feb-2023 
 ******************************************
 %nproc=4
 Will use up to    4 processors via shared memory.
 %mem=5760MB
 %chk=gaussian_78_water_hf_pdz.chk
 ------------------------------
 #P HF/6-31g* scf(maxcycle=200)
 ------------------------------
 1/38=1,172=1/1;
 2/12=2,17=6,18=5,40=1/2;
 3/5=1,6=6,7=1,11=9,25=1,30=1/1,2,3;
 4//1;
 5/5=2,7=200,38=5/2;
 6/7=2,8=2,9=2,10=2,28=1/1;
 99/5=1,9=1/99;
 Leave Link    1 at Wed Feb  8 15:05:58 2023, MaxMem=   754974720 cpu:               0.1 elap:               0.0
 (Enter /opt/cluster/programs/g16-c.01/g16/l101.exe)
 --------------
 Gaussian input
 --------------
 Symbolic Z-matrix:
 Charge =  0 Multiplicity = 1
 O                     0.        0.11751   0. 
 H                     0.75785  -0.47015   0. 
 H                    -0.84424  -0.21946   0. 
 
 ITRead=  0  0  0
 MicOpt= -1 -1 -1
 NAtoms=      3 NQM=        3 NQMF=       0 NMMI=      0 NMMIF=      0
                NMic=       0 NMicF=      0.
                    Isotopes and Nuclear Properties:
 (Nuclear quadrupole moments (NQMom) in fm**2, nuclear magnetic moments (NMagM)
  in nuclear magnetons)

  Atom         1           2           3
 IAtWgt=          16           1           1
 AtmWgt=  15.9949146   1.0078250   1.0078250
 NucSpn=           0           1           1
 AtZEff=  -0.0000000  -0.0000000  -0.0000000
 NQMom=    0.0000000   0.0000000   0.0000000
 NMagM=    0.0000000   2.7928460   2.7928460
 AtZNuc=   8.0000000   1.0000000   1.0000000
 Leave Link  101 at Wed Feb  8 15:05:58 2023, MaxMem=   754974720 cpu:               0.5 elap:               0.2
 (Enter /opt/cluster/programs/g16-c.01/g16/l202.exe)
                          Input orientation:                          
 ---------------------------------------------------------------------
 Center     Atomic      Atomic             Coordinates (Angstroms)
 Number     Number       Type             X           Y           Z
 ---------------------------------------------------------------------
      1          8           0        0.000000    0.117510    0.000000
      2          1           0        0.757850   -0.470150    0.000000
      3          1           0       -0.844236   -0.219458    0.000000
 ---------------------------------------------------------------------
                    Distance matrix (angstroms):
                    1          2          3
     1  O    0.000000
     2  H    0.959000   0.000000
     3  H    0.909000   1.621581   0.000000
 Stoichiometry    H2O
 Framework group  CS[SG(H2O)]
 Deg. of freedom     3
 Full point group                 CS      NOp   2
 Largest Abelian subgroup         CS      NOp   2
 Largest concise Abelian subgroup C1      NOp   1
                         Standard orientation:                         
 ---------------------------------------------------------------------
 Center     Atomic      Atomic             Coordinates (Angstroms)
 Number     Number       Type             X           Y           Z
 ---------------------------------------------------------------------
      1          8           0        0.000000    0.092865    0.000000
      2          1           0        0.809229   -0.421750   -0.000000
      3          1           0       -0.809229   -0.321174    0.000000
 ---------------------------------------------------------------------
 Rotational constants (GHZ):        1316.6108120         380.8029449         295.3724585
 Leave Link  202 at Wed Feb  8 15:05:58 2023, MaxMem=   754974720 cpu:               0.1 elap:               0.0
 (Enter /opt/cluster/programs/g16-c.01/g16/l301.exe)
 Standard basis: 6-31G(d) (6D, 7F)
 Ernie: Thresh=  0.10000D-02 Tol=  0.10000D-05 Strict=F.
 There are    15 symmetry adapted cartesian basis functions of A'  symmetry.
 There are     4 symmetry adapted cartesian basis functions of A"  symmetry.
 There are    15 symmetry adapted basis functions of A'  symmetry.
 There are     4 symmetry adapted basis functions of A"  symmetry.
    19 basis functions,    36 primitive gaussians,    19 cartesian basis functions
     5 alpha electrons        5 beta electrons
       nuclear repulsion energy         9.3979677554 Hartrees.
 IExCor=    0 DFT=F Ex=HF Corr=None ExCW=0 ScaHFX=  1.000000
 ScaDFX=  1.000000  1.000000  1.000000  1.000000 ScalE2=  1.000000  1.000000
 IRadAn=      5 IRanWt=     -1 IRanGd=            0 ICorTp=0 IEmpDi=  4
 NAtoms=    3 NActive=    3 NUniq=    3 SFac= 1.00D+00 NAtFMM=   60 NAOKFM=F Big=F
 Integral buffers will be    131072 words long.
 Raffenetti 1 integral format.
 Two-electron integral symmetry is turned on.
 Leave Link  301 at Wed Feb  8 15:05:59 2023, MaxMem=   754974720 cpu:               0.2 elap:               0.1
 (Enter /opt/cluster/programs/g16-c.01/g16/l302.exe)
 NPDir=0 NMtPBC=     1 NCelOv=     1 NCel=       1 NClECP=     1 NCelD=      1
         NCelK=      1 NCelE2=     1 NClLst=     1 CellRange=     0.0.
 One-electron integrals computed using PRISM.
 One-electron integral symmetry used in STVInt
 NBasis=    19 RedAO= T EigKep=  2.17D-02  NBF=    15     4
 NBsUse=    19 1.00D-06 EigRej= -1.00D+00 NBFU=    15     4
 Leave Link  302 at Wed Feb  8 15:05:59 2023, MaxMem=   754974720 cpu:               0.8 elap:               0.3
 (Enter /opt/cluster/programs/g16-c.01/g16/l303.exe)
 DipDrv:  MaxL=1.
 Leave Link  303 at Wed Feb  8 15:05:59 2023, MaxMem=   754974720 cpu:               0.2 elap:               0.1
 (Enter /opt/cluster/programs/g16-c.01/g16/l401.exe)
 ExpMin= 1.61D-01 ExpMax= 5.48D+03 ExpMxC= 8.25D+02 IAcc=3 IRadAn=         5 AccDes= 0.00D+00
 Harris functional with IExCor=  205 and IRadAn=       5 diagonalized for initial guess.
 HarFok:  IExCor=  205 AccDes= 0.00D+00 IRadAn=         5 IDoV= 1 UseB2=F ITyADJ=14
 ICtDFT=  3500011 ScaDFX=  1.000000  1.000000  1.000000  1.000000
 FoFCou: FMM=F IPFlag=           0 FMFlag=      100000 FMFlg1=           0
         NFxFlg=           0 DoJE=T BraDBF=F KetDBF=T FulRan=T
         wScrn=  0.000000 ICntrl=       500 IOpCl=  0 I1Cent=   200000004 NGrid=           0
         NMat0=    1 NMatS0=      1 NMatT0=    0 NMatD0=    1 NMtDS0=    0 NMtDT0=    0
 Petite list used in FoFCou.
 Harris En= -76.0988779887435    
 JPrj=0 DoOrth=F DoCkMO=F.
 Initial guess orbital symmetries:
       Occupied  (A') (A') (A') (A') (A")
       Virtual   (A') (A') (A') (A") (A') (A') (A') (A') (A") (A')
                 (A") (A') (A') (A')
 The electronic state of the initial guess is 1-A'.
 Leave Link  401 at Wed Feb  8 15:06:00 2023, MaxMem=   754974720 cpu:               1.8 elap:               0.9
 (Enter /opt/cluster/programs/g16-c.01/g16/l502.exe)
 Keep R1 ints in memory in symmetry-blocked form, NReq=845369.
 FoFCou: FMM=F IPFlag=           0 FMFlag=           0 FMFlg1=           0
         NFxFlg=           0 DoJE=F BraDBF=F KetDBF=F FulRan=T
         wScrn=  0.000000 ICntrl=       600 IOpCl=  0 I1Cent=           0 NGrid=           0
         NMat0=    1 NMatS0=    190 NMatT0=    0 NMatD0=    1 NMtDS0=    0 NMtDT0=    0
 Petite list used in FoFCou.
 Closed shell SCF:
 Using DIIS extrapolation, IDIIS=  1040.
 NGot=   754974720 LenX=   754962225 LenY=   754961343
 Requested convergence on RMS density matrix=1.00D-08 within 200 cycles.
 Requested convergence on MAX density matrix=1.00D-06.
 Requested convergence on             energy=1.00D-06.
 No special actions if energy rises.

 Cycle   1  Pass 1  IDiag  1:
 E= -75.9154670922029    
 DIIS: error= 8.15D-02 at cycle   1 NSaved=   1.
 NSaved= 1 IEnMin= 1 EnMin= -75.9154670922029     IErMin= 1 ErrMin= 8.15D-02
 ErrMax= 8.15D-02  0.00D+00 EMaxC= 1.00D-01 BMatC= 1.41D-01 BMatP= 1.41D-01
 IDIUse=3 WtCom= 1.85D-01 WtEn= 8.15D-01
 Coeff-Com:  0.100D+01
 Coeff-En:   0.100D+01
 Coeff:      0.100D+01
 Gap=     0.586 Goal=   None    Shift=    0.000
 GapD=    0.586 DampG=2.000 DampE=0.500 DampFc=1.0000 IDamp=-1.
 RMSDP=1.57D-02 MaxDP=1.26D-01              OVMax= 1.22D-01

 Cycle   2  Pass 1  IDiag  1:
 E= -75.9764164487678     Delta-E=       -0.060949356565 Rises=F Damp=F
 DIIS: error= 5.11D-02 at cycle   2 NSaved=   2.
 NSaved= 2 IEnMin= 2 EnMin= -75.9764164487678     IErMin= 2 ErrMin= 5.11D-02
 ErrMax= 5.11D-02  0.00D+00 EMaxC= 1.00D-01 BMatC= 4.13D-02 BMatP= 1.41D-01
 IDIUse=3 WtCom= 4.89D-01 WtEn= 5.11D-01
 Coeff-Com:  0.333D+00 0.667D+00
 Coeff-En:   0.724D-01 0.928D+00
 Coeff:      0.200D+00 0.800D+00
 Gap=     0.734 Goal=   None    Shift=    0.000
 RMSDP=7.45D-03 MaxDP=5.94D-02 DE=-6.09D-02 OVMax= 4.91D-02

 Cycle   3  Pass 1  IDiag  1:
 E= -76.0013651376207     Delta-E=       -0.024948688853 Rises=F Damp=F
 DIIS: error= 1.22D-02 at cycle   3 NSaved=   3.
 NSaved= 3 IEnMin= 3 EnMin= -76.0013651376207     IErMin= 3 ErrMin= 1.22D-02
 ErrMax= 1.22D-02  0.00D+00 EMaxC= 1.00D-01 BMatC= 2.63D-03 BMatP= 4.13D-02
 IDIUse=3 WtCom= 8.78D-01 WtEn= 1.22D-01
 Coeff-Com: -0.248D-01 0.175D+00 0.850D+00
 Coeff-En:   0.000D+00 0.000D+00 0.100D+01
 Coeff:     -0.218D-01 0.154D+00 0.868D+00
 Gap=     0.705 Goal=   None    Shift=    0.000
 RMSDP=1.60D-03 MaxDP=1.31D-02 DE=-2.49D-02 OVMax= 1.27D-02

 Cycle   4  Pass 1  IDiag  1:
 E= -76.0032141951798     Delta-E=       -0.001849057559 Rises=F Damp=F
 DIIS: error= 1.45D-03 at cycle   4 NSaved=   4.
 NSaved= 4 IEnMin= 4 EnMin= -76.0032141951798     IErMin= 4 ErrMin= 1.45D-03
 ErrMax= 1.45D-03  0.00D+00 EMaxC= 1.00D-01 BMatC= 2.32D-05 BMatP= 2.63D-03
 IDIUse=3 WtCom= 9.86D-01 WtEn= 1.45D-02
 Coeff-Com:  0.608D-02-0.804D-01-0.247D+00 0.132D+01
 Coeff-En:   0.000D+00 0.000D+00 0.000D+00 0.100D+01
 Coeff:      0.600D-02-0.792D-01-0.244D+00 0.132D+01
 Gap=     0.708 Goal=   None    Shift=    0.000
 RMSDP=2.26D-04 MaxDP=1.86D-03 DE=-1.85D-03 OVMax= 1.90D-03

 Cycle   5  Pass 1  IDiag  1:
 E= -76.0032363880577     Delta-E=       -0.000022192878 Rises=F Damp=F
 DIIS: error= 1.32D-04 at cycle   5 NSaved=   5.
 NSaved= 5 IEnMin= 5 EnMin= -76.0032363880577     IErMin= 5 ErrMin= 1.32D-04
 ErrMax= 1.32D-04  0.00D+00 EMaxC= 1.00D-01 BMatC= 1.89D-07 BMatP= 2.32D-05
 IDIUse=3 WtCom= 9.99D-01 WtEn= 1.32D-03
 Coeff-Com: -0.160D-03 0.825D-02 0.164D-01-0.247D+00 0.122D+01
 Coeff-En:   0.000D+00 0.000D+00 0.000D+00 0.000D+00 0.100D+01
 Coeff:     -0.160D-03 0.824D-02 0.164D-01-0.247D+00 0.122D+01
 Gap=     0.709 Goal=   None    Shift=    0.000
 RMSDP=5.91D-05 MaxDP=2.87D-04 DE=-2.22D-05 OVMax= 5.43D-04

 Cycle   6  Pass 1  IDiag  1:
 E= -76.0032369498790     Delta-E=       -0.000000561821 Rises=F Damp=F
 DIIS: error= 2.46D-05 at cycle   6 NSaved=   6.
 NSaved= 6 IEnMin= 6 EnMin= -76.0032369498790     IErMin= 6 ErrMin= 2.46D-05
 ErrMax= 2.46D-05  0.00D+00 EMaxC= 1.00D-01 BMatC= 9.60D-09 BMatP= 1.89D-07
 IDIUse=1 WtCom= 1.00D+00 WtEn= 0.00D+00
 Coeff-Com: -0.262D-03 0.199D-02 0.849D-02-0.796D-02-0.316D+00 0.131D+01
 Coeff:     -0.262D-03 0.199D-02 0.849D-02-0.796D-02-0.316D+00 0.131D+01
 Gap=     0.709 Goal=   None    Shift=    0.000
 RMSDP=1.68D-05 MaxDP=8.52D-05 DE=-5.62D-07 OVMax= 1.49D-04

 Cycle   7  Pass 1  IDiag  1:
 E= -76.0032369802978     Delta-E=       -0.000000030419 Rises=F Damp=F
 DIIS: error= 4.42D-06 at cycle   7 NSaved=   7.
 NSaved= 7 IEnMin= 7 EnMin= -76.0032369802978     IErMin= 7 ErrMin= 4.42D-06
 ErrMax= 4.42D-06  0.00D+00 EMaxC= 1.00D-01 BMatC= 3.26D-10 BMatP= 9.60D-09
 IDIUse=1 WtCom= 1.00D+00 WtEn= 0.00D+00
 Coeff-Com:  0.997D-04-0.103D-02-0.374D-02 0.116D-01 0.862D-01-0.515D+00
 Coeff-Com:  0.142D+01
 Coeff:      0.997D-04-0.103D-02-0.374D-02 0.116D-01 0.862D-01-0.515D+00
 Coeff:      0.142D+01
 Gap=     0.709 Goal=   None    Shift=    0.000
 RMSDP=1.97D-06 MaxDP=1.48D-05 DE=-3.04D-08 OVMax= 1.76D-05

 Cycle   8  Pass 1  IDiag  1:
 E= -76.0032369811089     Delta-E=       -0.000000000811 Rises=F Damp=F
 DIIS: error= 7.61D-07 at cycle   8 NSaved=   8.
 NSaved= 8 IEnMin= 8 EnMin= -76.0032369811089     IErMin= 8 ErrMin= 7.61D-07
 ErrMax= 7.61D-07  0.00D+00 EMaxC= 1.00D-01 BMatC= 4.89D-12 BMatP= 3.26D-10
 IDIUse=1 WtCom= 1.00D+00 WtEn= 0.00D+00
 Coeff-Com: -0.540D-05 0.886D-04 0.271D-03-0.177D-02 0.350D-03 0.262D-01
 Coeff-Com: -0.187D+00 0.116D+01
 Coeff:     -0.540D-05 0.886D-04 0.271D-03-0.177D-02 0.350D-03 0.262D-01
 Coeff:     -0.187D+00 0.116D+01
 Gap=     0.709 Goal=   None    Shift=    0.000
 RMSDP=1.94D-07 MaxDP=1.21D-06 DE=-8.11D-10 OVMax= 1.76D-06

 Cycle   9  Pass 1  IDiag  1:
 E= -76.0032369811184     Delta-E=       -0.000000000010 Rises=F Damp=F
 DIIS: error= 9.05D-08 at cycle   9 NSaved=   9.
 NSaved= 9 IEnMin= 9 EnMin= -76.0032369811184     IErMin= 9 ErrMin= 9.05D-08
 ErrMax= 9.05D-08  0.00D+00 EMaxC= 1.00D-01 BMatC= 1.12D-13 BMatP= 4.89D-12
 IDIUse=1 WtCom= 1.00D+00 WtEn= 0.00D+00
 Coeff-Com: -0.135D-05 0.689D-05 0.355D-04 0.644D-04-0.194D-02 0.584D-02
 Coeff-Com:  0.652D-02-0.227D+00 0.122D+01
 Coeff:     -0.135D-05 0.689D-05 0.355D-04 0.644D-04-0.194D-02 0.584D-02
 Coeff:      0.652D-02-0.227D+00 0.122D+01
 Gap=     0.709 Goal=   None    Shift=    0.000
 RMSDP=3.45D-08 MaxDP=2.24D-07 DE=-9.54D-12 OVMax= 2.76D-07

 Cycle  10  Pass 1  IDiag  1:
 E= -76.0032369811187     Delta-E=       -0.000000000000 Rises=F Damp=F
 DIIS: error= 1.46D-08 at cycle  10 NSaved=  10.
 NSaved=10 IEnMin=10 EnMin= -76.0032369811187     IErMin=10 ErrMin= 1.46D-08
 ErrMax= 1.46D-08  0.00D+00 EMaxC= 1.00D-01 BMatC= 2.86D-15 BMatP= 1.12D-13
 IDIUse=1 WtCom= 1.00D+00 WtEn= 0.00D+00
 Coeff-Com:  0.273D-06-0.305D-05-0.106D-04 0.394D-04 0.199D-03-0.134D-02
 Coeff-Com:  0.472D-02-0.109D-01-0.142D+00 0.115D+01
 Coeff:      0.273D-06-0.305D-05-0.106D-04 0.394D-04 0.199D-03-0.134D-02
 Coeff:      0.472D-02-0.109D-01-0.142D+00 0.115D+01
 Gap=     0.709 Goal=   None    Shift=    0.000
 RMSDP=5.82D-09 MaxDP=3.34D-08 DE=-2.70D-13 OVMax= 4.73D-08

 SCF Done:  E(RHF) =  -76.0032369811     A.U. after   10 cycles
            NFock= 10  Conv=0.58D-08     -V/T= 2.0015
 KE= 7.589134540660D+01 PE=-1.993540096193D+02 EE= 3.806145947610D+01
 Leave Link  502 at Wed Feb  8 15:06:00 2023, MaxMem=   754974720 cpu:               0.5 elap:               0.2
 (Enter /opt/cluster/programs/g16-c.01/g16/l601.exe)
 Copying SCF densities to generalized density rwf, IOpCl= 0 IROHF=0.

 **********************************************************************

            Population analysis using the SCF Density.

 **********************************************************************

 Orbital symmetries:
       Occupied  (A') (A') (A') (A') (A")
       Virtual   (A') (A') (A') (A') (A') (A") (A') (A') (A") (A')
                 (A") (A') (A') (A')
 The electronic state is 1-A'.
 Alpha  occ. eigenvalues --  -20.54596  -1.34124  -0.74721  -0.54261  -0.49286
 Alpha virt. eigenvalues --    0.21576   0.31048   1.06924   1.13214   1.16823
 Alpha virt. eigenvalues --    1.17238   1.39414   1.40964   2.01525   2.06057
 Alpha virt. eigenvalues --    2.08250   2.70605   2.94341   4.01150
          Condensed to atoms (all electrons):
               1          2          3
     1  O    8.357614   0.267765   0.274712
     2  H    0.267765   0.294474  -0.013199
     3  H    0.274712  -0.013199   0.289354
 Mulliken charges:
               1
     1  O   -0.900091
     2  H    0.450959
     3  H    0.449132
 Sum of Mulliken charges =   0.00000
 Mulliken charges with hydrogens summed into heavy atoms:
               1
     1  O    0.000000
 Electronic spatial extent (au):  <R**2>=             18.5886
 Charge=              0.0000 electrons
 Dipole moment (field-independent basis, Debye):
    X=             -0.0279    Y=             -1.9027    Z=             -0.0000  Tot=              1.9029
 Quadrupole moment (field-independent basis, Debye-Ang):
   XX=             -3.4945   YY=             -6.3568   ZZ=             -7.1790
   XY=             -0.1988   XZ=             -0.0000   YZ=              0.0000
 Traceless Quadrupole moment (field-independent basis, Debye-Ang):
   XX=              2.1823   YY=             -0.6800   ZZ=             -1.5022
   XY=             -0.1988   XZ=             -0.0000   YZ=              0.0000
 Octapole moment (field-independent basis, Debye-Ang**2):
  XXX=             -0.0682  YYY=             -1.1503  ZZZ=             -0.0000  XYY=              0.0967
  XXY=             -1.2906  XXZ=             -0.0000  XZZ=             -0.0336  YZZ=             -0.3378
  YYZ=             -0.0000  XYZ=              0.0000
 Hexadecapole moment (field-independent basis, Debye-Ang**3):
 XXXX=             -4.7008 YYYY=             -5.7189 ZZZZ=             -5.1604 XXXY=             -0.0447
 XXXZ=              0.0000 YYYX=              0.0104 YYYZ=             -0.0000 ZZZX=              0.0000
 ZZZY=             -0.0000 XXYY=             -1.6389 XXZZ=             -2.0079 YYZZ=             -1.8355
 XXYZ=              0.0000 YYXZ=              0.0000 ZZXY=              0.0333
 N-N= 9.397967755425D+00 E-N=-1.993540096038D+02  KE= 7.589134540660D+01
 Symmetry A'   KE= 7.136277464405D+01
 Symmetry A"   KE= 4.528570762550D+00
 No NMR shielding tensors so no spin-rotation constants.
 Leave Link  601 at Wed Feb  8 15:06:01 2023, MaxMem=   754974720 cpu:               0.8 elap:               0.4
 (Enter /opt/cluster/programs/g16-c.01/g16/l9999.exe)
 Unable to Open any file for archive entry.
 1\1\GINC-NODE59\SP\RHF\6-31G(d)\H2O1\BOITTIER\08-Feb-2023\0\\#P HF/6-3
 1g* scf(maxcycle=200)\\Gaussian input\\0,1\O,0,0.,0.11751,0.\H,0,0.757
 8497316,-0.4701504329,0.\H,0,-0.8442356762,-0.21945754,0.\\Version=ES6
 4L-G16RevC.01\State=1-A'\HF=-76.003237\RMSD=5.815e-09\Dipole=-0.080562
 5,-0.7443215,0.\Quadrupole=1.576655,-0.4597729,-1.1168821,-0.342355,0.
 ,0.\PG=CS [SG(H2O1)]\\@
 The archive entry for this job was punched.


 NOTHING RESEMBLES A NEW PHENOMENON AS MUCH AS A MISTAKE.

                               -- ENRICO FERMI (?)
 Job cpu time:       0 days  0 hours  0 minutes  5.2 seconds.
 Elapsed time:       0 days  0 hours  0 minutes  2.2 seconds.
 File lengths (MBytes):  RWF=      6 Int=      0 D2E=      0 Chk=      1 Scr=      1
 Normal termination of Gaussian 16 at Wed Feb  8 15:06:01 2023.
