 Entering Gaussian System, Link 0=/opt/cluster/programs/g16-c.01/g16/g16
 Input=/scratch/boittier/jobs/tmp.7312178/gaussian_169_water_hf_adz.com
 Output=/scratch/boittier/jobs/tmp.7312178/gaussian_169_water_hf_adz.out
 Initial command:
 /opt/cluster/programs/g16-c.01/g16/l1.exe "/scratch/boittier/jobs/tmp.7312178/Gau-187148.inp" -scrdir="/scratch/boittier/jobs/tmp.7312178/"
 Entering Link 1 = /opt/cluster/programs/g16-c.01/g16/l1.exe PID=    187149.
  
 Copyright (c) 1988-2019, Gaussian, Inc.  All Rights Reserved.
  
 This is part of the Gaussian(R) 16 program.  It is based on
 the Gaussian(R) 09 system (copyright 2009, Gaussian, Inc.),
 the Gaussian(R) 03 system (copyright 2003, Gaussian, Inc.),
 the Gaussian(R) 98 system (copyright 1998, Gaussian, Inc.),
 the Gaussian(R) 94 system (copyright 1995, Gaussian, Inc.),
 the Gaussian 92(TM) system (copyright 1992, Gaussian, Inc.),
 the Gaussian 90(TM) system (copyright 1990, Gaussian, Inc.),
 the Gaussian 88(TM) system (copyright 1988, Gaussian, Inc.),
 the Gaussian 86(TM) system (copyright 1986, Carnegie Mellon
 University), and the Gaussian 82(TM) system (copyright 1983,
 Carnegie Mellon University). Gaussian is a federally registered
 trademark of Gaussian, Inc.
  
 This software contains proprietary and confidential information,
 including trade secrets, belonging to Gaussian, Inc.
  
 This software is provided under written license and may be
 used, copied, transmitted, or stored only in accord with that
 written license.
  
 The following legend is applicable only to US Government
 contracts under FAR:
  
                    RESTRICTED RIGHTS LEGEND
  
 Use, reproduction and disclosure by the US Government is
 subject to restrictions as set forth in subparagraphs (a)
 and (c) of the Commercial Computer Software - Restricted
 Rights clause in FAR 52.227-19.
  
 Gaussian, Inc.
 340 Quinnipiac St., Bldg. 40, Wallingford CT 06492
  
  
 ---------------------------------------------------------------
 Warning -- This program may not be used in any manner that
 competes with the business of Gaussian, Inc. or will provide
 assistance to any competitor of Gaussian, Inc.  The licensee
 of this program is prohibited from giving any competitor of
 Gaussian, Inc. access to this program.  By using this program,
 the user acknowledges that Gaussian, Inc. is engaged in the
 business of creating and licensing software in the field of
 computational chemistry and represents and warrants to the
 licensee that it is not a competitor of Gaussian, Inc. and that
 it will not use this program in any manner prohibited above.
 ---------------------------------------------------------------
  

 Cite this work as:
 Gaussian 16, Revision C.01,
 M. J. Frisch, G. W. Trucks, H. B. Schlegel, G. E. Scuseria, 
 M. A. Robb, J. R. Cheeseman, G. Scalmani, V. Barone, 
 G. A. Petersson, H. Nakatsuji, X. Li, M. Caricato, A. V. Marenich, 
 J. Bloino, B. G. Janesko, R. Gomperts, B. Mennucci, H. P. Hratchian, 
 J. V. Ortiz, A. F. Izmaylov, J. L. Sonnenberg, D. Williams-Young, 
 F. Ding, F. Lipparini, F. Egidi, J. Goings, B. Peng, A. Petrone, 
 T. Henderson, D. Ranasinghe, V. G. Zakrzewski, J. Gao, N. Rega, 
 G. Zheng, W. Liang, M. Hada, M. Ehara, K. Toyota, R. Fukuda, 
 J. Hasegawa, M. Ishida, T. Nakajima, Y. Honda, O. Kitao, H. Nakai, 
 T. Vreven, K. Throssell, J. A. Montgomery, Jr., J. E. Peralta, 
 F. Ogliaro, M. J. Bearpark, J. J. Heyd, E. N. Brothers, K. N. Kudin, 
 V. N. Staroverov, T. A. Keith, R. Kobayashi, J. Normand, 
 K. Raghavachari, A. P. Rendell, J. C. Burant, S. S. Iyengar, 
 J. Tomasi, M. Cossi, J. M. Millam, M. Klene, C. Adamo, R. Cammi, 
 J. W. Ochterski, R. L. Martin, K. Morokuma, O. Farkas, 
 J. B. Foresman, and D. J. Fox, Gaussian, Inc., Wallingford CT, 2019.
 
 ******************************************
 Gaussian 16:  ES64L-G16RevC.01  3-Jul-2019
                20-Feb-2023 
 ******************************************
 %nproc=4
 Will use up to    4 processors via shared memory.
 %mem=5760MB
 %chk=gaussian_169_water_hf_adz.chk
 -----------------------------------
 #P HF/aug-cc-pVDZ scf(maxcycle=200)
 -----------------------------------
 1/38=1,172=1/1;
 2/12=2,17=6,18=5,40=1/2;
 3/5=16,7=10,11=9,25=1,30=1/1,2,3;
 4//1;
 5/5=2,7=200,38=5/2;
 6/7=2,8=2,9=2,10=2,28=1/1;
 99/5=1,9=1/99;
 Leave Link    1 at Mon Feb 20 10:29:26 2023, MaxMem=   754974720 cpu:               0.1 elap:               0.0
 (Enter /opt/cluster/programs/g16-c.01/g16/l101.exe)
 --------------
 Gaussian input
 --------------
 Symbolic Z-matrix:
 Charge =  0 Multiplicity = 1
 O                     0.        0.11751   0. 
 H                     0.79736  -0.50079   0. 
 H                    -0.77566  -0.5278    0. 
 
 ITRead=  0  0  0
 MicOpt= -1 -1 -1
 NAtoms=      3 NQM=        3 NQMF=       0 NMMI=      0 NMMIF=      0
                NMic=       0 NMicF=      0.
                    Isotopes and Nuclear Properties:
 (Nuclear quadrupole moments (NQMom) in fm**2, nuclear magnetic moments (NMagM)
  in nuclear magnetons)

  Atom         1           2           3
 IAtWgt=          16           1           1
 AtmWgt=  15.9949146   1.0078250   1.0078250
 NucSpn=           0           1           1
 AtZEff=  -0.0000000  -0.0000000  -0.0000000
 NQMom=    0.0000000   0.0000000   0.0000000
 NMagM=    0.0000000   2.7928460   2.7928460
 AtZNuc=   8.0000000   1.0000000   1.0000000
 Leave Link  101 at Mon Feb 20 10:29:26 2023, MaxMem=   754974720 cpu:               0.4 elap:               0.2
 (Enter /opt/cluster/programs/g16-c.01/g16/l202.exe)
                          Input orientation:                          
 ---------------------------------------------------------------------
 Center     Atomic      Atomic             Coordinates (Angstroms)
 Number     Number       Type             X           Y           Z
 ---------------------------------------------------------------------
      1          8           0        0.000000    0.117510    0.000000
      2          1           0        0.797362   -0.500790    0.000000
      3          1           0       -0.775661   -0.527804    0.000000
 ---------------------------------------------------------------------
                    Distance matrix (angstroms):
                    1          2          3
     1  O    0.000000
     2  H    1.009000   0.000000
     3  H    1.009000   1.573256   0.000000
 Stoichiometry    H2O
 Framework group  C2V[C2(O),SGV(H2)]
 Deg. of freedom     2
 Full point group                 C2V     NOp   4
 Largest Abelian subgroup         C2V     NOp   4
 Largest concise Abelian subgroup C2      NOp   2
                         Standard orientation:                         
 ---------------------------------------------------------------------
 Center     Atomic      Atomic             Coordinates (Angstroms)
 Number     Number       Type             X           Y           Z
 ---------------------------------------------------------------------
      1          8           0       -0.000000    0.000000    0.126380
      2          1           0       -0.000000    0.786628   -0.505520
      3          1           0       -0.000000   -0.786628   -0.505520
 ---------------------------------------------------------------------
 Rotational constants (GHZ):         707.0508535         405.1944421         257.5808387
 Leave Link  202 at Mon Feb 20 10:29:26 2023, MaxMem=   754974720 cpu:               0.3 elap:               0.2
 (Enter /opt/cluster/programs/g16-c.01/g16/l301.exe)
 Standard basis: Aug-CC-pVDZ (5D, 7F)
 Ernie: Thresh=  0.10000D-02 Tol=  0.10000D-05 Strict=F.
 Ernie:  2 primitive shells out of 39 were deleted.
 There are    20 symmetry adapted cartesian basis functions of A1  symmetry.
 There are     4 symmetry adapted cartesian basis functions of A2  symmetry.
 There are     7 symmetry adapted cartesian basis functions of B1  symmetry.
 There are    12 symmetry adapted cartesian basis functions of B2  symmetry.
 There are    18 symmetry adapted basis functions of A1  symmetry.
 There are     4 symmetry adapted basis functions of A2  symmetry.
 There are     7 symmetry adapted basis functions of B1  symmetry.
 There are    12 symmetry adapted basis functions of B2  symmetry.
    41 basis functions,    65 primitive gaussians,    43 cartesian basis functions
     5 alpha electrons        5 beta electrons
       nuclear repulsion energy         8.7276716188 Hartrees.
 IExCor=    0 DFT=F Ex=HF Corr=None ExCW=0 ScaHFX=  1.000000
 ScaDFX=  1.000000  1.000000  1.000000  1.000000 ScalE2=  1.000000  1.000000
 IRadAn=      5 IRanWt=     -1 IRanGd=            0 ICorTp=0 IEmpDi=  4
 NAtoms=    3 NActive=    3 NUniq=    2 SFac= 2.25D+00 NAtFMM=   60 NAOKFM=F Big=F
 Integral buffers will be    131072 words long.
 Raffenetti 1 integral format.
 Two-electron integral symmetry is turned on.
 Leave Link  301 at Mon Feb 20 10:29:26 2023, MaxMem=   754974720 cpu:               0.3 elap:               0.1
 (Enter /opt/cluster/programs/g16-c.01/g16/l302.exe)
 NPDir=0 NMtPBC=     1 NCelOv=     1 NCel=       1 NClECP=     1 NCelD=      1
         NCelK=      1 NCelE2=     1 NClLst=     1 CellRange=     0.0.
 One-electron integrals computed using PRISM.
 One-electron integral symmetry used in STVInt
 NBasis=    41 RedAO= T EigKep=  3.20D-03  NBF=    18     4     7    12
 NBsUse=    41 1.00D-06 EigRej= -1.00D+00 NBFU=    18     4     7    12
 Leave Link  302 at Mon Feb 20 10:29:27 2023, MaxMem=   754974720 cpu:               1.1 elap:               0.6
 (Enter /opt/cluster/programs/g16-c.01/g16/l303.exe)
 DipDrv:  MaxL=1.
 Leave Link  303 at Mon Feb 20 10:29:27 2023, MaxMem=   754974720 cpu:               0.8 elap:               0.4
 (Enter /opt/cluster/programs/g16-c.01/g16/l401.exe)
 ExpMin= 2.97D-02 ExpMax= 1.17D+04 ExpMxC= 4.01D+02 IAcc=3 IRadAn=         5 AccDes= 0.00D+00
 Harris functional with IExCor=  205 and IRadAn=       5 diagonalized for initial guess.
 HarFok:  IExCor=  205 AccDes= 0.00D+00 IRadAn=         5 IDoV= 1 UseB2=F ITyADJ=14
 ICtDFT=  3500011 ScaDFX=  1.000000  1.000000  1.000000  1.000000
 FoFCou: FMM=F IPFlag=           0 FMFlag=      100000 FMFlg1=           0
         NFxFlg=           0 DoJE=T BraDBF=F KetDBF=T FulRan=T
         wScrn=  0.000000 ICntrl=       500 IOpCl=  0 I1Cent=   200000004 NGrid=           0
         NMat0=    1 NMatS0=      1 NMatT0=    0 NMatD0=    1 NMtDS0=    0 NMtDT0=    0
 Petite list used in FoFCou.
 Harris En= -76.1188514087065    
 JPrj=0 DoOrth=F DoCkMO=F.
 Initial guess orbital symmetries:
       Occupied  (A1) (A1) (B2) (A1) (B1)
       Virtual   (A1) (B2) (A1) (B1) (B2) (A1) (B2) (A1) (A2) (A1)
                 (B1) (B2) (A1) (B2) (B2) (A1) (B1) (A1) (A2) (A1)
                 (B1) (B2) (A1) (B2) (A2) (B1) (B2) (A1) (A1) (B2)
                 (A1) (B1) (A1) (A2) (A1) (B2)
 The electronic state of the initial guess is 1-A1.
 Leave Link  401 at Mon Feb 20 10:29:28 2023, MaxMem=   754974720 cpu:               1.6 elap:               0.6
 (Enter /opt/cluster/programs/g16-c.01/g16/l502.exe)
 Keep R1 ints in memory in symmetry-blocked form, NReq=1211474.
 FoFCou: FMM=F IPFlag=           0 FMFlag=           0 FMFlg1=           0
         NFxFlg=           0 DoJE=F BraDBF=F KetDBF=F FulRan=T
         wScrn=  0.000000 ICntrl=       600 IOpCl=  0 I1Cent=           0 NGrid=           0
         NMat0=    1 NMatS0=    861 NMatT0=    0 NMatD0=    1 NMtDS0=    0 NMtDT0=    0
 Petite list used in FoFCou.
 Closed shell SCF:
 Using DIIS extrapolation, IDIIS=  1040.
 NGot=   754974720 LenX=   754868251 LenY=   754865961
 Requested convergence on RMS density matrix=1.00D-08 within 200 cycles.
 Requested convergence on MAX density matrix=1.00D-06.
 Requested convergence on             energy=1.00D-06.
 No special actions if energy rises.

 Cycle   1  Pass 1  IDiag  1:
 E= -75.9619369503000    
 DIIS: error= 4.82D-02 at cycle   1 NSaved=   1.
 NSaved= 1 IEnMin= 1 EnMin= -75.9619369503000     IErMin= 1 ErrMin= 4.82D-02
 ErrMax= 4.82D-02  0.00D+00 EMaxC= 1.00D-01 BMatC= 1.08D-01 BMatP= 1.08D-01
 IDIUse=3 WtCom= 5.18D-01 WtEn= 4.82D-01
 Coeff-Com:  0.100D+01
 Coeff-En:   0.100D+01
 Coeff:      0.100D+01
 Gap=     0.461 Goal=   None    Shift=    0.000
 GapD=    0.461 DampG=2.000 DampE=0.500 DampFc=1.0000 IDamp=-1.
 RMSDP=6.05D-03 MaxDP=1.11D-01              OVMax= 1.22D-01

 Cycle   2  Pass 1  IDiag  1:
 E= -76.0008514286267     Delta-E=       -0.038914478327 Rises=F Damp=F
 DIIS: error= 4.09D-02 at cycle   2 NSaved=   2.
 NSaved= 2 IEnMin= 2 EnMin= -76.0008514286267     IErMin= 2 ErrMin= 4.09D-02
 ErrMax= 4.09D-02  0.00D+00 EMaxC= 1.00D-01 BMatC= 4.55D-02 BMatP= 1.08D-01
 IDIUse=3 WtCom= 5.91D-01 WtEn= 4.09D-01
 Coeff-Com:  0.383D+00 0.617D+00
 Coeff-En:   0.245D+00 0.755D+00
 Coeff:      0.326D+00 0.674D+00
 Gap=     0.555 Goal=   None    Shift=    0.000
 RMSDP=2.95D-03 MaxDP=5.41D-02 DE=-3.89D-02 OVMax= 5.91D-02

 Cycle   3  Pass 1  IDiag  1:
 E= -76.0328161437672     Delta-E=       -0.031964715141 Rises=F Damp=F
 DIIS: error= 4.49D-03 at cycle   3 NSaved=   3.
 NSaved= 3 IEnMin= 3 EnMin= -76.0328161437672     IErMin= 3 ErrMin= 4.49D-03
 ErrMax= 4.49D-03  0.00D+00 EMaxC= 1.00D-01 BMatC= 1.06D-03 BMatP= 4.55D-02
 IDIUse=3 WtCom= 9.55D-01 WtEn= 4.49D-02
 Coeff-Com: -0.393D-01 0.871D-01 0.952D+00
 Coeff-En:   0.000D+00 0.000D+00 0.100D+01
 Coeff:     -0.375D-01 0.832D-01 0.954D+00
 Gap=     0.538 Goal=   None    Shift=    0.000
 RMSDP=4.59D-04 MaxDP=8.33D-03 DE=-3.20D-02 OVMax= 9.79D-03

 Cycle   4  Pass 1  IDiag  1:
 E= -76.0336654092274     Delta-E=       -0.000849265460 Rises=F Damp=F
 DIIS: error= 7.99D-04 at cycle   4 NSaved=   4.
 NSaved= 4 IEnMin= 4 EnMin= -76.0336654092274     IErMin= 4 ErrMin= 7.99D-04
 ErrMax= 7.99D-04  0.00D+00 EMaxC= 1.00D-01 BMatC= 9.50D-06 BMatP= 1.06D-03
 IDIUse=3 WtCom= 9.92D-01 WtEn= 7.99D-03
 Coeff-Com:  0.900D-02-0.429D-01-0.336D+00 0.137D+01
 Coeff-En:   0.000D+00 0.000D+00 0.000D+00 0.100D+01
 Coeff:      0.892D-02-0.425D-01-0.333D+00 0.137D+01
 Gap=     0.540 Goal=   None    Shift=    0.000
 RMSDP=1.25D-04 MaxDP=1.52D-03 DE=-8.49D-04 OVMax= 2.35D-03

 Cycle   5  Pass 1  IDiag  1:
 E= -76.0336896369955     Delta-E=       -0.000024227768 Rises=F Damp=F
 DIIS: error= 2.19D-04 at cycle   5 NSaved=   5.
 NSaved= 5 IEnMin= 5 EnMin= -76.0336896369955     IErMin= 5 ErrMin= 2.19D-04
 ErrMax= 2.19D-04  0.00D+00 EMaxC= 1.00D-01 BMatC= 4.41D-07 BMatP= 9.50D-06
 IDIUse=3 WtCom= 9.98D-01 WtEn= 2.19D-03
 Coeff-Com:  0.236D-03 0.269D-02 0.169D-01-0.263D+00 0.124D+01
 Coeff-En:   0.000D+00 0.000D+00 0.000D+00 0.000D+00 0.100D+01
 Coeff:      0.236D-03 0.269D-02 0.168D-01-0.263D+00 0.124D+01
 Gap=     0.540 Goal=   None    Shift=    0.000
 RMSDP=3.03D-05 MaxDP=4.89D-04 DE=-2.42D-05 OVMax= 6.72D-04

 Cycle   6  Pass 1  IDiag  1:
 E= -76.0336910004221     Delta-E=       -0.000001363427 Rises=F Damp=F
 DIIS: error= 4.34D-05 at cycle   6 NSaved=   6.
 NSaved= 6 IEnMin= 6 EnMin= -76.0336910004221     IErMin= 6 ErrMin= 4.34D-05
 ErrMax= 4.34D-05  0.00D+00 EMaxC= 1.00D-01 BMatC= 1.81D-08 BMatP= 4.41D-07
 IDIUse=1 WtCom= 1.00D+00 WtEn= 0.00D+00
 Coeff-Com: -0.438D-03 0.150D-02 0.125D-01-0.195D-01-0.249D+00 0.126D+01
 Coeff:     -0.438D-03 0.150D-02 0.125D-01-0.195D-01-0.249D+00 0.126D+01
 Gap=     0.540 Goal=   None    Shift=    0.000
 RMSDP=5.64D-06 MaxDP=1.20D-04 DE=-1.36D-06 OVMax= 1.60D-04

 Cycle   7  Pass 1  IDiag  1:
 E= -76.0336910573309     Delta-E=       -0.000000056909 Rises=F Damp=F
 DIIS: error= 7.03D-06 at cycle   7 NSaved=   7.
 NSaved= 7 IEnMin= 7 EnMin= -76.0336910573309     IErMin= 7 ErrMin= 7.03D-06
 ErrMax= 7.03D-06  0.00D+00 EMaxC= 1.00D-01 BMatC= 7.46D-10 BMatP= 1.81D-08
 IDIUse=1 WtCom= 1.00D+00 WtEn= 0.00D+00
 Coeff-Com:  0.151D-03-0.668D-03-0.566D-02 0.213D-01 0.289D-01-0.409D+00
 Coeff-Com:  0.136D+01
 Coeff:      0.151D-03-0.668D-03-0.566D-02 0.213D-01 0.289D-01-0.409D+00
 Coeff:      0.136D+01
 Gap=     0.540 Goal=   None    Shift=    0.000
 RMSDP=1.03D-06 MaxDP=1.93D-05 DE=-5.69D-08 OVMax= 2.89D-05

 Cycle   8  Pass 1  IDiag  1:
 E= -76.0336910592340     Delta-E=       -0.000000001903 Rises=F Damp=F
 DIIS: error= 9.16D-07 at cycle   8 NSaved=   8.
 NSaved= 8 IEnMin= 8 EnMin= -76.0336910592340     IErMin= 8 ErrMin= 9.16D-07
 ErrMax= 9.16D-07  0.00D+00 EMaxC= 1.00D-01 BMatC= 2.17D-11 BMatP= 7.46D-10
 IDIUse=1 WtCom= 1.00D+00 WtEn= 0.00D+00
 Coeff-Com: -0.342D-04 0.167D-03 0.148D-02-0.677D-02-0.672D-03 0.964D-01
 Coeff-Com: -0.471D+00 0.138D+01
 Coeff:     -0.342D-04 0.167D-03 0.148D-02-0.677D-02-0.672D-03 0.964D-01
 Coeff:     -0.471D+00 0.138D+01
 Gap=     0.540 Goal=   None    Shift=    0.000
 RMSDP=2.45D-07 MaxDP=3.25D-06 DE=-1.90D-09 OVMax= 4.66D-06

 Cycle   9  Pass 1  IDiag  1:
 E= -76.0336910592917     Delta-E=       -0.000000000058 Rises=F Damp=F
 DIIS: error= 1.15D-07 at cycle   9 NSaved=   9.
 NSaved= 9 IEnMin= 9 EnMin= -76.0336910592917     IErMin= 9 ErrMin= 1.15D-07
 ErrMax= 1.15D-07  0.00D+00 EMaxC= 1.00D-01 BMatC= 5.37D-13 BMatP= 2.17D-11
 IDIUse=1 WtCom= 1.00D+00 WtEn= 0.00D+00
 Coeff-Com:  0.624D-05-0.313D-04-0.299D-03 0.153D-02-0.380D-03-0.200D-01
 Coeff-Com:  0.118D+00-0.456D+00 0.136D+01
 Coeff:      0.624D-05-0.313D-04-0.299D-03 0.153D-02-0.380D-03-0.200D-01
 Coeff:      0.118D+00-0.456D+00 0.136D+01
 Gap=     0.540 Goal=   None    Shift=    0.000
 RMSDP=3.74D-08 MaxDP=4.28D-07 DE=-5.77D-11 OVMax= 7.49D-07

 Cycle  10  Pass 1  IDiag  1:
 E= -76.0336910592932     Delta-E=       -0.000000000002 Rises=F Damp=F
 DIIS: error= 2.99D-08 at cycle  10 NSaved=  10.
 NSaved=10 IEnMin=10 EnMin= -76.0336910592932     IErMin=10 ErrMin= 2.99D-08
 ErrMax= 2.99D-08  0.00D+00 EMaxC= 1.00D-01 BMatC= 2.69D-14 BMatP= 5.37D-13
 IDIUse=1 WtCom= 1.00D+00 WtEn= 0.00D+00
 Coeff-Com: -0.500D-06 0.270D-05 0.353D-04-0.245D-03 0.313D-03 0.220D-02
 Coeff-Com: -0.192D-01 0.931D-01-0.454D+00 0.138D+01
 Coeff:     -0.500D-06 0.270D-05 0.353D-04-0.245D-03 0.313D-03 0.220D-02
 Coeff:     -0.192D-01 0.931D-01-0.454D+00 0.138D+01
 Gap=     0.540 Goal=   None    Shift=    0.000
 RMSDP=8.35D-09 MaxDP=7.51D-08 DE=-1.51D-12 OVMax= 2.20D-07

 SCF Done:  E(RHF) =  -76.0336910593     A.U. after   10 cycles
            NFock= 10  Conv=0.84D-08     -V/T= 2.0038
 KE= 7.574234665430D+01 PE=-1.978781541228D+02 EE= 3.737444479038D+01
 Leave Link  502 at Mon Feb 20 10:29:31 2023, MaxMem=   754974720 cpu:               6.6 elap:               3.3
 (Enter /opt/cluster/programs/g16-c.01/g16/l601.exe)
 Copying SCF densities to generalized density rwf, IOpCl= 0 IROHF=0.

 **********************************************************************

            Population analysis using the SCF Density.

 **********************************************************************

 Orbital symmetries:
       Occupied  (A1) (A1) (B2) (A1) (B1)
       Virtual   (A1) (B2) (A1) (B1) (A1) (B2) (B2) (A1) (A2) (A1)
                 (B1) (B2) (A1) (B2) (B2) (A1) (B1) (A1) (A2) (A1)
                 (B2) (B1) (A1) (B2) (A2) (B1) (A1) (B2) (A1) (B2)
                 (A1) (B1) (A1) (A2) (A1) (B2)
 The electronic state is 1-A1.
 Alpha  occ. eigenvalues --  -20.58664  -1.33286  -0.68818  -0.57965  -0.50612
 Alpha virt. eigenvalues --    0.03429   0.05781   0.17475   0.19935   0.21856
 Alpha virt. eigenvalues --    0.23366   0.27458   0.32814   0.38314   0.39261
 Alpha virt. eigenvalues --    0.42310   0.53357   0.63369   0.65291   0.78720
 Alpha virt. eigenvalues --    0.92171   1.10816   1.12029   1.14400   1.27908
 Alpha virt. eigenvalues --    1.44870   1.46472   1.57166   1.96930   1.97736
 Alpha virt. eigenvalues --    2.08351   2.31998   2.38329   2.51633   2.69410
 Alpha virt. eigenvalues --    2.97689   3.67150   3.68296   3.69135   3.95324
 Alpha virt. eigenvalues --    4.20459
          Condensed to atoms (all electrons):
               1          2          3
     1  O    7.773049   0.315579   0.315579
     2  H    0.315579   0.500945  -0.018627
     3  H    0.315579  -0.018627   0.500945
 Mulliken charges:
               1
     1  O   -0.404207
     2  H    0.202103
     3  H    0.202103
 Sum of Mulliken charges =  -0.00000
 Mulliken charges with hydrogens summed into heavy atoms:
               1
     1  O   -0.000000
 Electronic spatial extent (au):  <R**2>=             20.2170
 Charge=             -0.0000 electrons
 Dipole moment (field-independent basis, Debye):
    X=             -0.0000    Y=             -0.0000    Z=             -2.0727  Tot=              2.0727
 Quadrupole moment (field-independent basis, Debye-Ang):
   XX=             -7.7059   YY=             -4.2530   ZZ=             -6.2207
   XY=              0.0000   XZ=              0.0000   YZ=             -0.0000
 Traceless Quadrupole moment (field-independent basis, Debye-Ang):
   XX=             -1.6461   YY=              1.8069   ZZ=             -0.1608
   XY=              0.0000   XZ=              0.0000   YZ=             -0.0000
 Octapole moment (field-independent basis, Debye-Ang**2):
  XXX=              0.0000  YYY=              0.0000  ZZZ=             -1.1942  XYY=             -0.0000
  XXY=             -0.0000  XXZ=             -0.2624  XZZ=              0.0000  YZZ=             -0.0000
  YYZ=             -1.5465  XYZ=             -0.0000
 Hexadecapole moment (field-independent basis, Debye-Ang**3):
 XXXX=             -6.9696 YYYY=             -6.4422 ZZZZ=             -7.7319 XXXY=             -0.0000
 XXXZ=             -0.0000 YYYX=             -0.0000 YYYZ=              0.0000 ZZZX=             -0.0000
 ZZZY=              0.0000 XXYY=             -2.5961 XXZZ=             -2.5180 YYZZ=             -1.9301
 XXYZ=              0.0000 YYXZ=              0.0000 ZZXY=              0.0000
 N-N= 8.727671618771D+00 E-N=-1.978781545154D+02  KE= 7.574234665430D+01
 Symmetry A1   KE= 6.783840743597D+01
 Symmetry A2   KE= 4.363877691630D-33
 Symmetry B1   KE= 4.454633195544D+00
 Symmetry B2   KE= 3.449306022791D+00
 No NMR shielding tensors so no spin-rotation constants.
 Leave Link  601 at Mon Feb 20 10:29:32 2023, MaxMem=   754974720 cpu:               1.2 elap:               0.6
 (Enter /opt/cluster/programs/g16-c.01/g16/l9999.exe)
 Unable to Open any file for archive entry.
 1\1\GINC-NODE105\SP\RHF\Aug-CC-pVDZ\H2O1\BOITTIER\20-Feb-2023\0\\#P HF
 /aug-cc-pVDZ scf(maxcycle=200)\\Gaussian input\\0,1\O,0,0.,0.11751,0.\
 H,0,0.7973622306,-0.5007896629,0.\H,0,-0.7756614181,-0.5278041596,0.\\
 Version=ES64L-G16RevC.01\State=1-A1\HF=-76.0336911\RMSD=8.350e-09\Dipo
 le=0.0140027,-0.8153604,0.\Quadrupole=1.3429339,-0.1191223,-1.2238116,
 0.0251162,0.,0.\PG=C02V [C2(O1),SGV(H2)]\\@
 The archive entry for this job was punched.


          EVOLUTION
 IN THE BEGINNING GOD MADE MAN.
 HE WORKED THE DIRT WITH HIS HANDS.
 THEN GOD DECIDED TO GIVE MAN SCIENCE,
 MAN SHOULD BE USEFUL (LIKE AN APPLIANCE.)
 BUT SOON MAN'S KNOWLEDGE GREW TOO GREAT,
 TO THE HEADING SCIENCE HE COULDN'T RELATE
 SO GOD SAID "LETS HAVE DIFFERENT FIELDS,
 WE'LL DIVIDE THEM UP, SEE WHAT IT YIELDS."
 ENTER PHYSICS, CHEMISTRY, BIO
 THEY SPRANG UP AROUND THE NILE.
 BUT CHEMISTRY SURPASSED THE REST
 FAR AND AWAY IT WAS THE BEST.
 EXPERIMENT WAS GOD'S DECREE
 EXPERIMENT DID CHEMISTS WITH LOTS OF GLEE
 BUT SOON THEIR TESTS BEGAN TO BOG,
 THEY FOUND THEMSELVES DEEP IN A FOG.
 "GIVE US SOME HELP" THEY CRIED TO GOD.
 GOD LOOKED AROUND, THEN GAVE THE NOD.
 ENTER EINSTEIN, HEISENBERG, BOHR,
 REACTION PATHS WERE CLEAR ONCE MORE.
 WITH THEORISTS GOD SEND DIRECTION
 AND THEN HE STOPPED, HE'D MADE PERFECTION.
          -- THOMAS A. HOLME, 1981
 Job cpu time:       0 days  0 hours  0 minutes 12.8 seconds.
 Elapsed time:       0 days  0 hours  0 minutes  6.1 seconds.
 File lengths (MBytes):  RWF=      6 Int=      0 D2E=      0 Chk=      1 Scr=      1
 Normal termination of Gaussian 16 at Mon Feb 20 10:29:32 2023.
