 Entering Gaussian System, Link 0=/opt/cluster/programs/g16-c.01/g16/g16
 Input=/scratch/boittier/jobs/tmp.7262242/gaussian_92_water_ccsdt_adz.com
 Output=/scratch/boittier/jobs/tmp.7262242/gaussian_92_water_ccsdt_adz.out
 Initial command:
 /opt/cluster/programs/g16-c.01/g16/l1.exe "/scratch/boittier/jobs/tmp.7262242/Gau-47726.inp" -scrdir="/scratch/boittier/jobs/tmp.7262242/"
 Entering Link 1 = /opt/cluster/programs/g16-c.01/g16/l1.exe PID=     47727.
  
 Copyright (c) 1988-2019, Gaussian, Inc.  All Rights Reserved.
  
 This is part of the Gaussian(R) 16 program.  It is based on
 the Gaussian(R) 09 system (copyright 2009, Gaussian, Inc.),
 the Gaussian(R) 03 system (copyright 2003, Gaussian, Inc.),
 the Gaussian(R) 98 system (copyright 1998, Gaussian, Inc.),
 the Gaussian(R) 94 system (copyright 1995, Gaussian, Inc.),
 the Gaussian 92(TM) system (copyright 1992, Gaussian, Inc.),
 the Gaussian 90(TM) system (copyright 1990, Gaussian, Inc.),
 the Gaussian 88(TM) system (copyright 1988, Gaussian, Inc.),
 the Gaussian 86(TM) system (copyright 1986, Carnegie Mellon
 University), and the Gaussian 82(TM) system (copyright 1983,
 Carnegie Mellon University). Gaussian is a federally registered
 trademark of Gaussian, Inc.
  
 This software contains proprietary and confidential information,
 including trade secrets, belonging to Gaussian, Inc.
  
 This software is provided under written license and may be
 used, copied, transmitted, or stored only in accord with that
 written license.
  
 The following legend is applicable only to US Government
 contracts under FAR:
  
                    RESTRICTED RIGHTS LEGEND
  
 Use, reproduction and disclosure by the US Government is
 subject to restrictions as set forth in subparagraphs (a)
 and (c) of the Commercial Computer Software - Restricted
 Rights clause in FAR 52.227-19.
  
 Gaussian, Inc.
 340 Quinnipiac St., Bldg. 40, Wallingford CT 06492
  
  
 ---------------------------------------------------------------
 Warning -- This program may not be used in any manner that
 competes with the business of Gaussian, Inc. or will provide
 assistance to any competitor of Gaussian, Inc.  The licensee
 of this program is prohibited from giving any competitor of
 Gaussian, Inc. access to this program.  By using this program,
 the user acknowledges that Gaussian, Inc. is engaged in the
 business of creating and licensing software in the field of
 computational chemistry and represents and warrants to the
 licensee that it is not a competitor of Gaussian, Inc. and that
 it will not use this program in any manner prohibited above.
 ---------------------------------------------------------------
  

 Cite this work as:
 Gaussian 16, Revision C.01,
 M. J. Frisch, G. W. Trucks, H. B. Schlegel, G. E. Scuseria, 
 M. A. Robb, J. R. Cheeseman, G. Scalmani, V. Barone, 
 G. A. Petersson, H. Nakatsuji, X. Li, M. Caricato, A. V. Marenich, 
 J. Bloino, B. G. Janesko, R. Gomperts, B. Mennucci, H. P. Hratchian, 
 J. V. Ortiz, A. F. Izmaylov, J. L. Sonnenberg, D. Williams-Young, 
 F. Ding, F. Lipparini, F. Egidi, J. Goings, B. Peng, A. Petrone, 
 T. Henderson, D. Ranasinghe, V. G. Zakrzewski, J. Gao, N. Rega, 
 G. Zheng, W. Liang, M. Hada, M. Ehara, K. Toyota, R. Fukuda, 
 J. Hasegawa, M. Ishida, T. Nakajima, Y. Honda, O. Kitao, H. Nakai, 
 T. Vreven, K. Throssell, J. A. Montgomery, Jr., J. E. Peralta, 
 F. Ogliaro, M. J. Bearpark, J. J. Heyd, E. N. Brothers, K. N. Kudin, 
 V. N. Staroverov, T. A. Keith, R. Kobayashi, J. Normand, 
 K. Raghavachari, A. P. Rendell, J. C. Burant, S. S. Iyengar, 
 J. Tomasi, M. Cossi, J. M. Millam, M. Klene, C. Adamo, R. Cammi, 
 J. W. Ochterski, R. L. Martin, K. Morokuma, O. Farkas, 
 J. B. Foresman, and D. J. Fox, Gaussian, Inc., Wallingford CT, 2019.
 
 ******************************************
 Gaussian 16:  ES64L-G16RevC.01  3-Jul-2019
                 8-Feb-2023 
 ******************************************
 %nproc=4
 Will use up to    4 processors via shared memory.
 %mem=5760MB
 %chk=gaussian_92_water_ccsdt_adz.chk
 ----------------------------------------
 #P CCSD(T)/aug-cc-pVDZ scf(maxcycle=200)
 ----------------------------------------
 1/38=1,172=1/1;
 2/12=2,17=6,18=5,40=1/2;
 3/5=16,7=10,11=9,25=1,30=1/1,2,3;
 4//1;
 5/5=2,7=200,38=5/2;
 8/6=4,9=120000,10=1/1,4;
 9/5=7,14=2/13;
 6/7=2,8=2,9=2,10=2/1;
 99/5=1,9=1/99;
 Leave Link    1 at Wed Feb  8 14:49:17 2023, MaxMem=   754974720 cpu:               0.1 elap:               0.0
 (Enter /opt/cluster/programs/g16-c.01/g16/l101.exe)
 --------------
 Gaussian input
 --------------
 Symbolic Z-matrix:
 Charge =  0 Multiplicity = 1
 O                     0.        0.11751   0. 
 H                     0.75785  -0.47015   0. 
 H                    -0.7973   -0.41541   0. 
 
 ITRead=  0  0  0
 MicOpt= -1 -1 -1
 NAtoms=      3 NQM=        3 NQMF=       0 NMMI=      0 NMMIF=      0
                NMic=       0 NMicF=      0.
                    Isotopes and Nuclear Properties:
 (Nuclear quadrupole moments (NQMom) in fm**2, nuclear magnetic moments (NMagM)
  in nuclear magnetons)

  Atom         1           2           3
 IAtWgt=          16           1           1
 AtmWgt=  15.9949146   1.0078250   1.0078250
 NucSpn=           0           1           1
 AtZEff=  -0.0000000  -0.0000000  -0.0000000
 NQMom=    0.0000000   0.0000000   0.0000000
 NMagM=    0.0000000   2.7928460   2.7928460
 AtZNuc=   8.0000000   1.0000000   1.0000000
 Leave Link  101 at Wed Feb  8 14:49:17 2023, MaxMem=   754974720 cpu:               0.8 elap:               0.2
 (Enter /opt/cluster/programs/g16-c.01/g16/l202.exe)
                          Input orientation:                          
 ---------------------------------------------------------------------
 Center     Atomic      Atomic             Coordinates (Angstroms)
 Number     Number       Type             X           Y           Z
 ---------------------------------------------------------------------
      1          8           0        0.000000    0.117510    0.000000
      2          1           0        0.757850   -0.470150    0.000000
      3          1           0       -0.797297   -0.415405    0.000000
 ---------------------------------------------------------------------
                    Distance matrix (angstroms):
                    1          2          3
     1  O    0.000000
     2  H    0.959000   0.000000
     3  H    0.959000   1.556110   0.000000
 Stoichiometry    H2O
 Framework group  C2V[C2(O),SGV(H2)]
 Deg. of freedom     2
 Full point group                 C2V     NOp   4
 Largest Abelian subgroup         C2V     NOp   4
 Largest concise Abelian subgroup C2      NOp   2
                         Standard orientation:                         
 ---------------------------------------------------------------------
 Center     Atomic      Atomic             Coordinates (Angstroms)
 Number     Number       Type             X           Y           Z
 ---------------------------------------------------------------------
      1          8           0        0.000000    0.000000    0.112127
      2          1           0       -0.000000    0.778055   -0.448508
      3          1           0       -0.000000   -0.778055   -0.448508
 ---------------------------------------------------------------------
 Rotational constants (GHZ):         898.2290402         414.1728028         283.4665626
 Leave Link  202 at Wed Feb  8 14:49:20 2023, MaxMem=   754974720 cpu:               0.0 elap:               0.6
 (Enter /opt/cluster/programs/g16-c.01/g16/l301.exe)
 Standard basis: Aug-CC-pVDZ (5D, 7F)
 Ernie: Thresh=  0.10000D-02 Tol=  0.10000D-05 Strict=F.
 Ernie:  2 primitive shells out of 39 were deleted.
 There are    20 symmetry adapted cartesian basis functions of A1  symmetry.
 There are     4 symmetry adapted cartesian basis functions of A2  symmetry.
 There are     7 symmetry adapted cartesian basis functions of B1  symmetry.
 There are    12 symmetry adapted cartesian basis functions of B2  symmetry.
 There are    18 symmetry adapted basis functions of A1  symmetry.
 There are     4 symmetry adapted basis functions of A2  symmetry.
 There are     7 symmetry adapted basis functions of B1  symmetry.
 There are    12 symmetry adapted basis functions of B2  symmetry.
    41 basis functions,    65 primitive gaussians,    43 cartesian basis functions
     5 alpha electrons        5 beta electrons
       nuclear repulsion energy         9.1688810514 Hartrees.
 IExCor=    0 DFT=F Ex=HF Corr=None ExCW=0 ScaHFX=  1.000000
 ScaDFX=  1.000000  1.000000  1.000000  1.000000 ScalE2=  1.000000  1.000000
 IRadAn=      5 IRanWt=     -1 IRanGd=            0 ICorTp=0 IEmpDi=  4
 NAtoms=    3 NActive=    3 NUniq=    2 SFac= 2.25D+00 NAtFMM=   60 NAOKFM=F Big=F
 Integral buffers will be    131072 words long.
 Raffenetti 1 integral format.
 Two-electron integral symmetry is turned on.
 Leave Link  301 at Wed Feb  8 14:49:24 2023, MaxMem=   754974720 cpu:               0.2 elap:               0.1
 (Enter /opt/cluster/programs/g16-c.01/g16/l302.exe)
 NPDir=0 NMtPBC=     1 NCelOv=     1 NCel=       1 NClECP=     1 NCelD=      1
         NCelK=      1 NCelE2=     1 NClLst=     1 CellRange=     0.0.
 One-electron integrals computed using PRISM.
 One-electron integral symmetry used in STVInt
 NBasis=    41 RedAO= T EigKep=  2.83D-03  NBF=    18     4     7    12
 NBsUse=    41 1.00D-06 EigRej= -1.00D+00 NBFU=    18     4     7    12
 Leave Link  302 at Wed Feb  8 14:49:24 2023, MaxMem=   754974720 cpu:               0.5 elap:               0.1
 (Enter /opt/cluster/programs/g16-c.01/g16/l303.exe)
 DipDrv:  MaxL=1.
 Leave Link  303 at Wed Feb  8 14:49:24 2023, MaxMem=   754974720 cpu:               0.2 elap:               0.1
 (Enter /opt/cluster/programs/g16-c.01/g16/l401.exe)
 ExpMin= 2.97D-02 ExpMax= 1.17D+04 ExpMxC= 4.01D+02 IAcc=3 IRadAn=         5 AccDes= 0.00D+00
 Harris functional with IExCor=  205 and IRadAn=       5 diagonalized for initial guess.
 HarFok:  IExCor=  205 AccDes= 0.00D+00 IRadAn=         5 IDoV= 1 UseB2=F ITyADJ=14
 ICtDFT=  3500011 ScaDFX=  1.000000  1.000000  1.000000  1.000000
 FoFCou: FMM=F IPFlag=           0 FMFlag=      100000 FMFlg1=           0
         NFxFlg=           0 DoJE=T BraDBF=F KetDBF=T FulRan=T
         wScrn=  0.000000 ICntrl=       500 IOpCl=  0 I1Cent=   200000004 NGrid=           0
         NMat0=    1 NMatS0=      1 NMatT0=    0 NMatD0=    1 NMtDS0=    0 NMtDT0=    0
 Petite list used in FoFCou.
 Harris En= -76.1253284460122    
 JPrj=0 DoOrth=F DoCkMO=F.
 Initial guess orbital symmetries:
       Occupied  (A1) (A1) (B2) (A1) (B1)
       Virtual   (A1) (B2) (A1) (B1) (A1) (B2) (B2) (A1) (A2) (A1)
                 (B1) (B2) (A1) (B2) (B2) (A1) (B1) (A1) (A2) (A1)
                 (B1) (B2) (A1) (B2) (A2) (B1) (B2) (A1) (A1) (B2)
                 (A1) (B1) (A1) (A2) (A1) (B2)
 The electronic state of the initial guess is 1-A1.
 Leave Link  401 at Wed Feb  8 14:49:25 2023, MaxMem=   754974720 cpu:               0.6 elap:               0.2
 (Enter /opt/cluster/programs/g16-c.01/g16/l502.exe)
 Keep R1 ints in memory in symmetry-blocked form, NReq=1211502.
 FoFCou: FMM=F IPFlag=           0 FMFlag=           0 FMFlg1=           0
         NFxFlg=           0 DoJE=F BraDBF=F KetDBF=F FulRan=T
         wScrn=  0.000000 ICntrl=       600 IOpCl=  0 I1Cent=           0 NGrid=           0
         NMat0=    1 NMatS0=    861 NMatT0=    0 NMatD0=    1 NMtDS0=    0 NMtDT0=    0
 Petite list used in FoFCou.
 Closed shell SCF:
 Using DIIS extrapolation, IDIIS=  1040.
 NGot=   754974720 LenX=   754868251 LenY=   754865961
 Requested convergence on RMS density matrix=1.00D-08 within 200 cycles.
 Requested convergence on MAX density matrix=1.00D-06.
 Requested convergence on             energy=1.00D-06.
 No special actions if energy rises.

 Cycle   1  Pass 1  IDiag  1:
 E= -75.9648232532650    
 DIIS: error= 5.09D-02 at cycle   1 NSaved=   1.
 NSaved= 1 IEnMin= 1 EnMin= -75.9648232532650     IErMin= 1 ErrMin= 5.09D-02
 ErrMax= 5.09D-02  0.00D+00 EMaxC= 1.00D-01 BMatC= 1.17D-01 BMatP= 1.17D-01
 IDIUse=3 WtCom= 4.91D-01 WtEn= 5.09D-01
 Coeff-Com:  0.100D+01
 Coeff-En:   0.100D+01
 Coeff:      0.100D+01
 Gap=     0.458 Goal=   None    Shift=    0.000
 GapD=    0.458 DampG=2.000 DampE=0.500 DampFc=1.0000 IDamp=-1.
 RMSDP=6.26D-03 MaxDP=1.17D-01              OVMax= 1.17D-01

 Cycle   2  Pass 1  IDiag  1:
 E= -76.0093538571283     Delta-E=       -0.044530603863 Rises=F Damp=F
 DIIS: error= 3.96D-02 at cycle   2 NSaved=   2.
 NSaved= 2 IEnMin= 2 EnMin= -76.0093538571283     IErMin= 2 ErrMin= 3.96D-02
 ErrMax= 3.96D-02  0.00D+00 EMaxC= 1.00D-01 BMatC= 4.50D-02 BMatP= 1.17D-01
 IDIUse=3 WtCom= 6.04D-01 WtEn= 3.96D-01
 Coeff-Com:  0.372D+00 0.628D+00
 Coeff-En:   0.208D+00 0.792D+00
 Coeff:      0.307D+00 0.693D+00
 Gap=     0.561 Goal=   None    Shift=    0.000
 RMSDP=2.92D-03 MaxDP=5.42D-02 DE=-4.45D-02 OVMax= 5.85D-02

 Cycle   3  Pass 1  IDiag  1:
 E= -76.0402185755779     Delta-E=       -0.030864718450 Rises=F Damp=F
 DIIS: error= 4.70D-03 at cycle   3 NSaved=   3.
 NSaved= 3 IEnMin= 3 EnMin= -76.0402185755779     IErMin= 3 ErrMin= 4.70D-03
 ErrMax= 4.70D-03  0.00D+00 EMaxC= 1.00D-01 BMatC= 1.15D-03 BMatP= 4.50D-02
 IDIUse=3 WtCom= 9.53D-01 WtEn= 4.70D-02
 Coeff-Com: -0.374D-01 0.935D-01 0.944D+00
 Coeff-En:   0.000D+00 0.000D+00 0.100D+01
 Coeff:     -0.357D-01 0.891D-01 0.947D+00
 Gap=     0.542 Goal=   None    Shift=    0.000
 RMSDP=4.69D-04 MaxDP=8.08D-03 DE=-3.09D-02 OVMax= 9.14D-03

 Cycle   4  Pass 1  IDiag  1:
 E= -76.0410841448439     Delta-E=       -0.000865569266 Rises=F Damp=F
 DIIS: error= 6.11D-04 at cycle   4 NSaved=   4.
 NSaved= 4 IEnMin= 4 EnMin= -76.0410841448439     IErMin= 4 ErrMin= 6.11D-04
 ErrMax= 6.11D-04  0.00D+00 EMaxC= 1.00D-01 BMatC= 7.05D-06 BMatP= 1.15D-03
 IDIUse=3 WtCom= 9.94D-01 WtEn= 6.11D-03
 Coeff-Com:  0.895D-02-0.433D-01-0.330D+00 0.136D+01
 Coeff-En:   0.000D+00 0.000D+00 0.000D+00 0.100D+01
 Coeff:      0.889D-02-0.431D-01-0.328D+00 0.136D+01
 Gap=     0.543 Goal=   None    Shift=    0.000
 RMSDP=1.11D-04 MaxDP=1.09D-03 DE=-8.66D-04 OVMax= 2.19D-03

 Cycle   5  Pass 1  IDiag  1:
 E= -76.0411014244217     Delta-E=       -0.000017279578 Rises=F Damp=F
 DIIS: error= 1.65D-04 at cycle   5 NSaved=   5.
 NSaved= 5 IEnMin= 5 EnMin= -76.0411014244217     IErMin= 5 ErrMin= 1.65D-04
 ErrMax= 1.65D-04  0.00D+00 EMaxC= 1.00D-01 BMatC= 2.89D-07 BMatP= 7.05D-06
 IDIUse=3 WtCom= 9.98D-01 WtEn= 1.65D-03
 Coeff-Com: -0.306D-03 0.431D-02 0.304D-01-0.296D+00 0.126D+01
 Coeff-En:   0.000D+00 0.000D+00 0.000D+00 0.000D+00 0.100D+01
 Coeff:     -0.306D-03 0.430D-02 0.303D-01-0.296D+00 0.126D+01
 Gap=     0.544 Goal=   None    Shift=    0.000
 RMSDP=2.56D-05 MaxDP=3.65D-04 DE=-1.73D-05 OVMax= 5.45D-04

 Cycle   6  Pass 1  IDiag  1:
 E= -76.0411023054240     Delta-E=       -0.000000881002 Rises=F Damp=F
 DIIS: error= 3.10D-05 at cycle   6 NSaved=   6.
 NSaved= 6 IEnMin= 6 EnMin= -76.0411023054240     IErMin= 6 ErrMin= 3.10D-05
 ErrMax= 3.10D-05  0.00D+00 EMaxC= 1.00D-01 BMatC= 1.09D-08 BMatP= 2.89D-07
 IDIUse=1 WtCom= 1.00D+00 WtEn= 0.00D+00
 Coeff-Com: -0.329D-03 0.123D-02 0.956D-02-0.155D-01-0.221D+00 0.123D+01
 Coeff:     -0.329D-03 0.123D-02 0.956D-02-0.155D-01-0.221D+00 0.123D+01
 Gap=     0.544 Goal=   None    Shift=    0.000
 RMSDP=4.32D-06 MaxDP=8.57D-05 DE=-8.81D-07 OVMax= 1.12D-04

 Cycle   7  Pass 1  IDiag  1:
 E= -76.0411023396337     Delta-E=       -0.000000034210 Rises=F Damp=F
 DIIS: error= 6.37D-06 at cycle   7 NSaved=   7.
 NSaved= 7 IEnMin= 7 EnMin= -76.0411023396337     IErMin= 7 ErrMin= 6.37D-06
 ErrMax= 6.37D-06  0.00D+00 EMaxC= 1.00D-01 BMatC= 5.61D-10 BMatP= 1.09D-08
 IDIUse=1 WtCom= 1.00D+00 WtEn= 0.00D+00
 Coeff-Com:  0.134D-03-0.667D-03-0.525D-02 0.228D-01 0.111D-01-0.401D+00
 Coeff-Com:  0.137D+01
 Coeff:      0.134D-03-0.667D-03-0.525D-02 0.228D-01 0.111D-01-0.401D+00
 Coeff:      0.137D+01
 Gap=     0.544 Goal=   None    Shift=    0.000
 RMSDP=8.88D-07 MaxDP=1.76D-05 DE=-3.42D-08 OVMax= 2.56D-05

 Cycle   8  Pass 1  IDiag  1:
 E= -76.0411023411098     Delta-E=       -0.000000001476 Rises=F Damp=F
 DIIS: error= 7.53D-07 at cycle   8 NSaved=   8.
 NSaved= 8 IEnMin= 8 EnMin= -76.0411023411098     IErMin= 8 ErrMin= 7.53D-07
 ErrMax= 7.53D-07  0.00D+00 EMaxC= 1.00D-01 BMatC= 1.44D-11 BMatP= 5.61D-10
 IDIUse=1 WtCom= 1.00D+00 WtEn= 0.00D+00
 Coeff-Com: -0.270D-04 0.147D-03 0.121D-02-0.640D-02 0.461D-02 0.797D-01
 Coeff-Com: -0.422D+00 0.134D+01
 Coeff:     -0.270D-04 0.147D-03 0.121D-02-0.640D-02 0.461D-02 0.797D-01
 Coeff:     -0.422D+00 0.134D+01
 Gap=     0.544 Goal=   None    Shift=    0.000
 RMSDP=1.94D-07 MaxDP=2.59D-06 DE=-1.48D-09 OVMax= 3.64D-06

 Cycle   9  Pass 1  IDiag  1:
 E= -76.0411023411454     Delta-E=       -0.000000000036 Rises=F Damp=F
 DIIS: error= 8.61D-08 at cycle   9 NSaved=   9.
 NSaved= 9 IEnMin= 9 EnMin= -76.0411023411454     IErMin= 9 ErrMin= 8.61D-08
 ErrMax= 8.61D-08  0.00D+00 EMaxC= 1.00D-01 BMatC= 2.23D-13 BMatP= 1.44D-11
 IDIUse=1 WtCom= 1.00D+00 WtEn= 0.00D+00
 Coeff-Com:  0.317D-05-0.186D-04-0.166D-03 0.104D-02-0.131D-02-0.108D-01
 Coeff-Com:  0.761D-01-0.331D+00 0.127D+01
 Coeff:      0.317D-05-0.186D-04-0.166D-03 0.104D-02-0.131D-02-0.108D-01
 Coeff:      0.761D-01-0.331D+00 0.127D+01
 Gap=     0.544 Goal=   None    Shift=    0.000
 RMSDP=2.37D-08 MaxDP=2.36D-07 DE=-3.56D-11 OVMax= 3.67D-07

 Cycle  10  Pass 1  IDiag  1:
 E= -76.0411023411460     Delta-E=       -0.000000000001 Rises=F Damp=F
 DIIS: error= 2.49D-08 at cycle  10 NSaved=  10.
 NSaved=10 IEnMin=10 EnMin= -76.0411023411460     IErMin=10 ErrMin= 2.49D-08
 ErrMax= 2.49D-08  0.00D+00 EMaxC= 1.00D-01 BMatC= 1.19D-14 BMatP= 2.23D-13
 IDIUse=1 WtCom= 1.00D+00 WtEn= 0.00D+00
 Coeff-Com: -0.208D-06 0.163D-05 0.203D-04-0.185D-03 0.443D-03 0.101D-02
 Coeff-Com: -0.132D-01 0.728D-01-0.457D+00 0.140D+01
 Coeff:     -0.208D-06 0.163D-05 0.203D-04-0.185D-03 0.443D-03 0.101D-02
 Coeff:     -0.132D-01 0.728D-01-0.457D+00 0.140D+01
 Gap=     0.544 Goal=   None    Shift=    0.000
 RMSDP=5.59D-09 MaxDP=5.30D-08 DE=-5.68D-13 OVMax= 1.18D-07

 SCF Done:  E(RHF) =  -76.0411023411     A.U. after   10 cycles
            NFock= 10  Conv=0.56D-08     -V/T= 2.0017
 KE= 7.591467998691D+01 PE=-1.988542349223D+02 EE= 3.772957154284D+01
 Leave Link  502 at Wed Feb  8 14:49:25 2023, MaxMem=   754974720 cpu:               0.6 elap:               0.2
 (Enter /opt/cluster/programs/g16-c.01/g16/l801.exe)
 Windowed orbitals will be sorted by symmetry type.
 ExpMin= 2.97D-02 ExpMax= 1.17D+04 ExpMxC= 4.01D+02 IAcc=3 IRadAn=         5 AccDes= 0.00D+00
 HarFok:  IExCor=  205 AccDes= 0.00D+00 IRadAn=         5 IDoV=-2 UseB2=F ITyADJ=14
 ICtDFT= 12500011 ScaDFX=  1.000000  1.000000  1.000000  1.000000
 Largest valence mixing into a core orbital is  6.12D-05
 Largest core mixing into a valence orbital is  1.77D-05
 Range of M.O.s used for correlation:     2    41
 NBasis=    41 NAE=     5 NBE=     5 NFC=     1 NFV=     0
 NROrb=     40 NOA=     4 NOB=     4 NVA=    36 NVB=    36
 Leave Link  801 at Wed Feb  8 14:49:25 2023, MaxMem=   754974720 cpu:               0.3 elap:               0.1
 (Enter /opt/cluster/programs/g16-c.01/g16/l804.exe)
 Closed-shell transformation, MDV=   754974720 ITran=4 ISComp=2.
 Unit  1 TFree=         57018 TCopy=        140846.
 Semi-Direct transformation.
 ModeAB=           4 MOrb=             4 LenV=     754769467
 LASXX=        30213 LTotXX=       30213 LenRXX=       63236
 LTotAB=       33023 MaxLAS=      110560 LenRXY=           0
 NonZer=       93449 LenScr=      785920 LnRSAI=      110560
 LnScr1=      785920 LExtra=           0 Total=      1745636
 MaxDsk=          -1 SrtSym=           T ITran=            4
 DoSDTr:  NPSUse=  4
 JobTyp=0 Pass  1:  I=   1 to   4.
 (rs|ai) integrals will be sorted in core.
 Complete sort for first half transformation.
 First half transformation complete.
 Complete sort for second half transformation.
 Second half transformation complete.
 Spin components of T(2) and E(2):
     alpha-alpha T2 =       0.7713705830D-02 E2=     -0.2790099986D-01
     alpha-beta  T2 =       0.4361502298D-01 E2=     -0.1634823345D+00
     beta-beta   T2 =       0.7713705830D-02 E2=     -0.2790099986D-01
 ANorm=    0.1029097874D+01
 E2 =    -0.2192843342D+00 EUMP2 =    -0.76260386675380D+02
 Leave Link  804 at Wed Feb  8 14:49:26 2023, MaxMem=   754974720 cpu:               0.4 elap:               0.1
 (Enter /opt/cluster/programs/g16-c.01/g16/l913.exe)
 CIDS:  MDV=   754974720.
 Frozen-core window:  NFC=   1 NFV=   0.
 IFCWin=0 IBDFC=1 NFBD=     0     0 NFCmp=     0     0 NFFFC=     0     0
 Using DD3R+UMP44R for 1st iteration.
 Using DD4RQ for 2nd and later iterations.
 Keep R2 and R3 ints in memory in symmetry-blocked form, NReq=1214278.
 FoFCou: FMM=F IPFlag=           0 FMFlag=           0 FMFlg1=           0
         NFxFlg=           0 DoJE=F BraDBF=F KetDBF=F FulRan=T
         wScrn=  0.000000 ICntrl=       600 IOpCl=  0 I1Cent=           0 NGrid=           0
         NMat0=    1 NMatS0=    861 NMatT0=    0 NMatD0=    1 NMtDS0=    0 NMtDT0=    0
 Petite list used in FoFCou.
 CIDS: In Core Option IDoMem=           1.
 CCSD(T)
 =======
 Iterations=  50 Convergence= 0.100D-06
 Produce multiple copies of IABC intergrals
 Iteration Nr.   1
 **********************
 DD1Dir will call FoFMem   1 times, MxPair=        20
 NAB=    10 NAA=     0 NBB=     0.
 MP4(R+Q)=  0.24731968D-02
 Maximum subspace dimension=  5
 A-vector RMS=  5.3968326D-03 Max=  1.7067901D-02 conv= 1.00D-05.
 RLE energy=       -0.2215167205
 E3=       -0.47731933D-02        EUMP3=      -0.76265159869D+02
 E4(DQ)=   -0.14914355D-02        UMP4(DQ)=   -0.76266651304D+02
 E4(SDQ)=  -0.32123638D-02        UMP4(SDQ)=  -0.76268372233D+02
 VARIATIONAL ENERGIES WITH THE FIRST-ORDER WAVEFUNCTION:
 DE(Corr)= -0.22149426     E(Corr)=     -76.262596602    
 NORM(A)=   0.10301169D+01
 Iteration Nr.   2
 **********************
 DD1Dir will call FoFMem   1 times, MxPair=        20
 NAB=    10 NAA=     0 NBB=     0.
 A-vector RMS=  6.3988776D-04 Max=  3.0311145D-03 conv= 1.00D-05.
 RLE energy=       -0.2266558837
 DE(Corr)= -0.22604815     E(CORR)=     -76.267150495     Delta=-4.55D-03
 NORM(A)=   0.10323041D+01
 Iteration Nr.   3
 **********************
 DD1Dir will call FoFMem   1 times, MxPair=        20
 NAB=    10 NAA=     0 NBB=     0.
 A-vector RMS=  7.4442264D-04 Max=  2.8742440D-03 conv= 1.00D-05.
 RLE energy=       -0.2270283047
 DE(Corr)= -0.22660972     E(CORR)=     -76.267712061     Delta=-5.62D-04
 NORM(A)=   0.10328193D+01
 Iteration Nr.   4
 **********************
 DD1Dir will call FoFMem   1 times, MxPair=        20
 NAB=    10 NAA=     0 NBB=     0.
 A-vector RMS=  9.3324600D-05 Max=  3.6905825D-04 conv= 1.00D-05.
 RLE energy=       -0.2270652924
 DE(Corr)= -0.22703545     E(CORR)=     -76.268137796     Delta=-4.26D-04
 NORM(A)=   0.10329324D+01
 Iteration Nr.   5
 **********************
 DD1Dir will call FoFMem   1 times, MxPair=        20
 NAB=    10 NAA=     0 NBB=     0.
 A-vector RMS=  3.9033007D-05 Max=  1.6372646D-04 conv= 1.00D-05.
 RLE energy=       -0.2270709108
 DE(Corr)= -0.22706728     E(CORR)=     -76.268169621     Delta=-3.18D-05
 NORM(A)=   0.10329507D+01
 Iteration Nr.   6
 **********************
 DD1Dir will call FoFMem   1 times, MxPair=        20
 NAB=    10 NAA=     0 NBB=     0.
 A-vector RMS=  1.0568981D-05 Max=  4.1274502D-05 conv= 1.00D-05.
 RLE energy=       -0.2270681791
 DE(Corr)= -0.22706941     E(CORR)=     -76.268171750     Delta=-2.13D-06
 NORM(A)=   0.10329526D+01
 Iteration Nr.   7
 **********************
 DD1Dir will call FoFMem   1 times, MxPair=        20
 NAB=    10 NAA=     0 NBB=     0.
 A-vector RMS=  4.0817281D-06 Max=  1.3867914D-05 conv= 1.00D-05.
 RLE energy=       -0.2270687503
 DE(Corr)= -0.22706942     E(CORR)=     -76.268171756     Delta=-5.80D-09
 NORM(A)=   0.10329532D+01
 Iteration Nr.   8
 **********************
 DD1Dir will call FoFMem   1 times, MxPair=        20
 NAB=    10 NAA=     0 NBB=     0.
 A-vector RMS=  1.3384678D-06 Max=  4.8140434D-06 conv= 1.00D-05.
 RLE energy=       -0.2270689947
 DE(Corr)= -0.22706908     E(CORR)=     -76.268171422     Delta= 3.34D-07
 NORM(A)=   0.10329536D+01
 Iteration Nr.   9
 **********************
 DD1Dir will call FoFMem   1 times, MxPair=        20
 NAB=    10 NAA=     0 NBB=     0.
 A-vector RMS=  3.8146514D-07 Max=  1.4812648D-06 conv= 1.00D-05.
 RLE energy=       -0.2270692164
 DE(Corr)= -0.22706922     E(CORR)=     -76.268171565     Delta=-1.42D-07
 NORM(A)=   0.10329538D+01
 Iteration Nr.  10
 **********************
 DD1Dir will call FoFMem   1 times, MxPair=        20
 NAB=    10 NAA=     0 NBB=     0.
 A-vector RMS=  1.8014546D-07 Max=  6.4618319D-07 conv= 1.00D-05.
 RLE energy=       -0.2270692569
 DE(Corr)= -0.22706924     E(CORR)=     -76.268171577     Delta=-1.20D-08
 NORM(A)=   0.10329539D+01
 CI/CC converged in   10 iterations to DelEn=-1.20D-08 Conv= 1.00D-07 ErrA1= 1.80D-07 Conv= 1.00D-05
 Wavefunction amplitudes converged. E(Corr)=     -76.268171577    
 Largest amplitude= 3.45D-02
 IPart=  3 IA=    3   10.95% done.
 IPart=  2 IA=    5   21.27% done.
 IPart=  4 IA=    7   30.95% done.
 IPart=  2 IA=    9   40.00% done.
 IPart=  1 IA=   12   52.38% done.
 IPart=  2 IA=   15   63.33% done.
 IPart=  2 IA=   18   72.86% done.
 IPart=  4 IA=   21   80.95% done.
 IPart=  2 IA=   26   91.27% done.
 Time for triples=        0.80 seconds.
 T4(CCSD)= -0.56027291D-02
 T5(CCSD)=  0.40217344D-03
 CCSD(T)= -0.76273372133D+02
 Discarding MO integrals.
 Leave Link  913 at Wed Feb  8 14:49:26 2023, MaxMem=   754974720 cpu:               1.7 elap:               0.4
 (Enter /opt/cluster/programs/g16-c.01/g16/l601.exe)
 Copying SCF densities to generalized density rwf, IOpCl= 0 IROHF=0.

 **********************************************************************

            Population analysis using the SCF Density.

 **********************************************************************

 Orbital symmetries:
       Occupied  (A1) (A1) (B2) (A1) (B1)
       Virtual   (A1) (B2) (A1) (B1) (A1) (B2) (B2) (A1) (A2) (A1)
                 (B1) (B2) (A1) (B2) (B2) (A1) (B1) (A1) (A2) (A1)
                 (B2) (B1) (A1) (B2) (A2) (B1) (A1) (B2) (A1) (B2)
                 (A1) (B1) (A1) (A2) (A1) (B2)
 The electronic state is 1-A1.
 Alpha  occ. eigenvalues --  -20.57572  -1.35294  -0.72584  -0.57757  -0.50814
 Alpha virt. eigenvalues --    0.03572   0.05757   0.17449   0.19631   0.22184
 Alpha virt. eigenvalues --    0.23023   0.29274   0.32532   0.38347   0.41164
 Alpha virt. eigenvalues --    0.43953   0.53495   0.64928   0.65717   0.82159
 Alpha virt. eigenvalues --    0.91566   1.09675   1.10872   1.14891   1.32969
 Alpha virt. eigenvalues --    1.47184   1.48736   1.57967   1.99281   2.02291
 Alpha virt. eigenvalues --    2.09445   2.40586   2.47369   2.62007   2.72451
 Alpha virt. eigenvalues --    2.93054   3.66969   3.68453   3.70421   4.05486
 Alpha virt. eigenvalues --    4.29286
          Condensed to atoms (all electrons):
               1          2          3
     1  O    7.632568   0.339093   0.339093
     2  H    0.339093   0.545098  -0.039567
     3  H    0.339093  -0.039567   0.545098
 Mulliken charges:
               1
     1  O   -0.310753
     2  H    0.155377
     3  H    0.155377
 Sum of Mulliken charges =  -0.00000
 Mulliken charges with hydrogens summed into heavy atoms:
               1
     1  O   -0.000000
 Electronic spatial extent (au):  <R**2>=             19.5680
 Charge=             -0.0000 electrons
 Dipole moment (field-independent basis, Debye):
    X=             -0.0000    Y=              0.0000    Z=             -1.9345  Tot=              1.9345
 Quadrupole moment (field-independent basis, Debye-Ang):
   XX=             -7.6015   YY=             -4.1021   ZZ=             -6.3851
   XY=              0.0000   XZ=              0.0000   YZ=             -0.0000
 Traceless Quadrupole moment (field-independent basis, Debye-Ang):
   XX=             -1.5719   YY=              1.9275   ZZ=             -0.3556
   XY=              0.0000   XZ=              0.0000   YZ=             -0.0000
 Octapole moment (field-independent basis, Debye-Ang**2):
  XXX=              0.0000  YYY=             -0.0000  ZZZ=             -1.1253  XYY=             -0.0000
  XXY=             -0.0000  XXZ=             -0.2857  XZZ=              0.0000  YZZ=              0.0000
  YYZ=             -1.4023  XYZ=             -0.0000
 Hexadecapole moment (field-independent basis, Debye-Ang**3):
 XXXX=             -6.8514 YYYY=             -5.8845 ZZZZ=             -7.3285 XXXY=             -0.0000
 XXXZ=             -0.0000 YYYX=             -0.0000 YYYZ=             -0.0000 ZZZX=             -0.0000
 ZZZY=              0.0000 XXYY=             -2.4810 XXZZ=             -2.4068 YYZZ=             -1.9379
 XXYZ=              0.0000 YYXZ=              0.0000 ZZXY=             -0.0000
 N-N= 9.168881051408D+00 E-N=-1.988542351357D+02  KE= 7.591467998691D+01
 Symmetry A1   KE= 6.793350777015D+01
 Symmetry A2   KE= 2.975663948972D-33
 Symmetry B1   KE= 4.440357327626D+00
 Symmetry B2   KE= 3.540814889138D+00
 Leave Link  601 at Wed Feb  8 14:49:26 2023, MaxMem=   754974720 cpu:               0.3 elap:               0.1
 (Enter /opt/cluster/programs/g16-c.01/g16/l9999.exe)
 Unable to Open any file for archive entry.
 1\1\GINC-NODE59\SP\RCCSD(T)-FC\Aug-CC-pVDZ\H2O1\BOITTIER\08-Feb-2023\0
 \\#P CCSD(T)/aug-cc-pVDZ scf(maxcycle=200)\\Gaussian input\\0,1\O,0,0.
 ,0.11751,0.\H,0,0.7578497316,-0.4701504329,0.\H,0,-0.7972967856,-0.415
 4054114,0.\\Version=ES64L-G16RevC.01\State=1-A1\HF=-76.0411023\MP2=-76
 .2603867\MP3=-76.2651599\MP4D=-76.2691245\MP4DQ=-76.2666513\MP4SDQ=-76
 .2683722\CCSD=-76.2681716\CCSD(T)=-76.2733721\RMSD=5.593e-09\PG=C02V [
 C2(O1),SGV(H2)]\\@
 The archive entry for this job was punched.


 You never know when you're making a memory.
                        -- Rickie Lee Jones
 Job cpu time:       0 days  0 hours  0 minutes  5.8 seconds.
 Elapsed time:       0 days  0 hours  0 minutes  2.2 seconds.
 File lengths (MBytes):  RWF=     20 Int=      0 D2E=      0 Chk=      1 Scr=      1
 Normal termination of Gaussian 16 at Wed Feb  8 14:49:26 2023.
