 Entering Gaussian System, Link 0=/opt/cluster/programs/g16-c.01/g16/g16
 Input=/scratch/boittier/jobs/tmp.7261968/gaussian_29_water_wb97_ptz.com
 Output=/scratch/boittier/jobs/tmp.7261968/gaussian_29_water_wb97_ptz.out
 Initial command:
 /opt/cluster/programs/g16-c.01/g16/l1.exe "/scratch/boittier/jobs/tmp.7261968/Gau-52201.inp" -scrdir="/scratch/boittier/jobs/tmp.7261968/"
 Entering Link 1 = /opt/cluster/programs/g16-c.01/g16/l1.exe PID=     52202.
  
 Copyright (c) 1988-2019, Gaussian, Inc.  All Rights Reserved.
  
 This is part of the Gaussian(R) 16 program.  It is based on
 the Gaussian(R) 09 system (copyright 2009, Gaussian, Inc.),
 the Gaussian(R) 03 system (copyright 2003, Gaussian, Inc.),
 the Gaussian(R) 98 system (copyright 1998, Gaussian, Inc.),
 the Gaussian(R) 94 system (copyright 1995, Gaussian, Inc.),
 the Gaussian 92(TM) system (copyright 1992, Gaussian, Inc.),
 the Gaussian 90(TM) system (copyright 1990, Gaussian, Inc.),
 the Gaussian 88(TM) system (copyright 1988, Gaussian, Inc.),
 the Gaussian 86(TM) system (copyright 1986, Carnegie Mellon
 University), and the Gaussian 82(TM) system (copyright 1983,
 Carnegie Mellon University). Gaussian is a federally registered
 trademark of Gaussian, Inc.
  
 This software contains proprietary and confidential information,
 including trade secrets, belonging to Gaussian, Inc.
  
 This software is provided under written license and may be
 used, copied, transmitted, or stored only in accord with that
 written license.
  
 The following legend is applicable only to US Government
 contracts under FAR:
  
                    RESTRICTED RIGHTS LEGEND
  
 Use, reproduction and disclosure by the US Government is
 subject to restrictions as set forth in subparagraphs (a)
 and (c) of the Commercial Computer Software - Restricted
 Rights clause in FAR 52.227-19.
  
 Gaussian, Inc.
 340 Quinnipiac St., Bldg. 40, Wallingford CT 06492
  
  
 ---------------------------------------------------------------
 Warning -- This program may not be used in any manner that
 competes with the business of Gaussian, Inc. or will provide
 assistance to any competitor of Gaussian, Inc.  The licensee
 of this program is prohibited from giving any competitor of
 Gaussian, Inc. access to this program.  By using this program,
 the user acknowledges that Gaussian, Inc. is engaged in the
 business of creating and licensing software in the field of
 computational chemistry and represents and warrants to the
 licensee that it is not a competitor of Gaussian, Inc. and that
 it will not use this program in any manner prohibited above.
 ---------------------------------------------------------------
  

 Cite this work as:
 Gaussian 16, Revision C.01,
 M. J. Frisch, G. W. Trucks, H. B. Schlegel, G. E. Scuseria, 
 M. A. Robb, J. R. Cheeseman, G. Scalmani, V. Barone, 
 G. A. Petersson, H. Nakatsuji, X. Li, M. Caricato, A. V. Marenich, 
 J. Bloino, B. G. Janesko, R. Gomperts, B. Mennucci, H. P. Hratchian, 
 J. V. Ortiz, A. F. Izmaylov, J. L. Sonnenberg, D. Williams-Young, 
 F. Ding, F. Lipparini, F. Egidi, J. Goings, B. Peng, A. Petrone, 
 T. Henderson, D. Ranasinghe, V. G. Zakrzewski, J. Gao, N. Rega, 
 G. Zheng, W. Liang, M. Hada, M. Ehara, K. Toyota, R. Fukuda, 
 J. Hasegawa, M. Ishida, T. Nakajima, Y. Honda, O. Kitao, H. Nakai, 
 T. Vreven, K. Throssell, J. A. Montgomery, Jr., J. E. Peralta, 
 F. Ogliaro, M. J. Bearpark, J. J. Heyd, E. N. Brothers, K. N. Kudin, 
 V. N. Staroverov, T. A. Keith, R. Kobayashi, J. Normand, 
 K. Raghavachari, A. P. Rendell, J. C. Burant, S. S. Iyengar, 
 J. Tomasi, M. Cossi, J. M. Millam, M. Klene, C. Adamo, R. Cammi, 
 J. W. Ochterski, R. L. Martin, K. Morokuma, O. Farkas, 
 J. B. Foresman, and D. J. Fox, Gaussian, Inc., Wallingford CT, 2019.
 
 ******************************************
 Gaussian 16:  ES64L-G16RevC.01  3-Jul-2019
                 8-Feb-2023 
 ******************************************
 %nproc=4
 Will use up to    4 processors via shared memory.
 %mem=5760MB
 %chk=gaussian_29_water_wb97_ptz.chk
 ------------------------------------
 #P wB97XD/6-311g** scf(maxcycle=200)
 ------------------------------------
 1/38=1,172=1/1;
 2/12=2,17=6,18=5,40=1/2;
 3/5=4,6=6,7=101,11=2,25=1,30=1,74=-58/1,2,3;
 4//1;
 5/5=2,7=200,38=5/2;
 6/7=2,8=2,9=2,10=2,28=1/1;
 99/5=1,9=1/99;
 Leave Link    1 at Wed Feb  8 14:40:24 2023, MaxMem=   754974720 cpu:               0.1 elap:               0.0
 (Enter /opt/cluster/programs/g16-c.01/g16/l101.exe)
 --------------
 Gaussian input
 --------------
 Symbolic Z-matrix:
 Charge =  0 Multiplicity = 1
 O                     0.        0.11751   0. 
 H                     0.71834  -0.43951   0. 
 H                    -0.73722  -0.49583   0. 
 
 ITRead=  0  0  0
 MicOpt= -1 -1 -1
 NAtoms=      3 NQM=        3 NQMF=       0 NMMI=      0 NMMIF=      0
                NMic=       0 NMicF=      0.
                    Isotopes and Nuclear Properties:
 (Nuclear quadrupole moments (NQMom) in fm**2, nuclear magnetic moments (NMagM)
  in nuclear magnetons)

  Atom         1           2           3
 IAtWgt=          16           1           1
 AtmWgt=  15.9949146   1.0078250   1.0078250
 NucSpn=           0           1           1
 AtZEff=  -0.0000000  -0.0000000  -0.0000000
 NQMom=    0.0000000   0.0000000   0.0000000
 NMagM=    0.0000000   2.7928460   2.7928460
 AtZNuc=   8.0000000   1.0000000   1.0000000
 Leave Link  101 at Wed Feb  8 14:40:25 2023, MaxMem=   754974720 cpu:               0.6 elap:               0.2
 (Enter /opt/cluster/programs/g16-c.01/g16/l202.exe)
                          Input orientation:                          
 ---------------------------------------------------------------------
 Center     Atomic      Atomic             Coordinates (Angstroms)
 Number     Number       Type             X           Y           Z
 ---------------------------------------------------------------------
      1          8           0        0.000000    0.117510    0.000000
      2          1           0        0.718337   -0.439511    0.000000
      3          1           0       -0.737224   -0.495826    0.000000
 ---------------------------------------------------------------------
                    Distance matrix (angstroms):
                    1          2          3
     1  O    0.000000
     2  H    0.909000   0.000000
     3  H    0.959000   1.456651   0.000000
 Stoichiometry    H2O
 Framework group  CS[SG(H2O)]
 Deg. of freedom     3
 Full point group                 CS      NOp   2
 Largest Abelian subgroup         CS      NOp   2
 Largest concise Abelian subgroup C1      NOp   1
                         Standard orientation:                         
 ---------------------------------------------------------------------
 Center     Atomic      Atomic             Coordinates (Angstroms)
 Number     Number       Type             X           Y           Z
 ---------------------------------------------------------------------
      1          8           0        0.000000    0.117051    0.000000
      2          1           0        0.727232   -0.428307    0.000000
      3          1           0       -0.727232   -0.508101    0.000000
 ---------------------------------------------------------------------
 Rotational constants (GHZ):         830.0319116         470.7811062         300.3993165
 Leave Link  202 at Wed Feb  8 14:40:25 2023, MaxMem=   754974720 cpu:               0.1 elap:               0.1
 (Enter /opt/cluster/programs/g16-c.01/g16/l301.exe)
 Standard basis: 6-311G(d,p) (5D, 7F)
 Ernie: Thresh=  0.10000D-02 Tol=  0.10000D-05 Strict=F.
 There are    24 symmetry adapted cartesian basis functions of A'  symmetry.
 There are     7 symmetry adapted cartesian basis functions of A"  symmetry.
 There are    23 symmetry adapted basis functions of A'  symmetry.
 There are     7 symmetry adapted basis functions of A"  symmetry.
    30 basis functions,    48 primitive gaussians,    31 cartesian basis functions
     5 alpha electrons        5 beta electrons
       nuclear repulsion energy         9.4349171912 Hartrees.
 IExCor= 4639 DFT=T Ex+Corr=wB97XD ExCW=0 ScaHFX=  1.000000
 ScaDFX=  1.000000  1.000000  1.000000  1.000000 ScalE2=  1.000000  1.000000
 IRadAn=      5 IRanWt=     -1 IRanGd=            0 ICorTp=0 IEmpDi=121
 HFx  wShort=  0.000000 wLong=  0.200000 cFull=  0.222036 cShort=  0.000000 cLong=  0.777964
 DFx  wShort=  0.000000 wLong=  0.200000 cFull=  0.000000 cShort=  0.000000 cLong=  1.000000
 NAtoms=    3 NActive=    3 NUniq=    3 SFac= 1.00D+00 NAtFMM=   60 NAOKFM=F Big=F
 Integral buffers will be    131072 words long.
 Raffenetti 2 integral format.
 Two-electron integral symmetry is turned on.
 R6Disp:  Grimme-D2 Dispersion energy=       -0.0000213795 Hartrees.
 Nuclear repulsion after empirical dispersion term =        9.4348958117 Hartrees.
 Leave Link  301 at Wed Feb  8 14:40:25 2023, MaxMem=   754974720 cpu:               0.1 elap:               0.0
 (Enter /opt/cluster/programs/g16-c.01/g16/l302.exe)
 NPDir=0 NMtPBC=     1 NCelOv=     1 NCel=       1 NClECP=     1 NCelD=      1
         NCelK=      1 NCelE2=     1 NClLst=     1 CellRange=     0.0.
 One-electron integrals computed using PRISM.
 One-electron integral symmetry used in STVInt
 NBasis=    30 RedAO= T EigKep=  1.61D-02  NBF=    23     7
 NBsUse=    30 1.00D-06 EigRej= -1.00D+00 NBFU=    23     7
 Precomputing XC quadrature grid using
 IXCGrd= 4 IRadAn=           5 IRanWt=          -1 IRanGd=           0 AccXCQ= 0.00D+00.
 Generated NRdTot=       0 NPtTot=           0 NUsed=           0 NTot=          32
 NSgBfM=    31    31    31    31    31 MxSgAt=     3 MxSgA2=     3.
 Leave Link  302 at Wed Feb  8 14:40:26 2023, MaxMem=   754974720 cpu:               1.0 elap:               0.5
 (Enter /opt/cluster/programs/g16-c.01/g16/l303.exe)
 DipDrv:  MaxL=1.
 Leave Link  303 at Wed Feb  8 14:40:26 2023, MaxMem=   754974720 cpu:               0.2 elap:               0.1
 (Enter /opt/cluster/programs/g16-c.01/g16/l401.exe)
 ExpMin= 1.03D-01 ExpMax= 8.59D+03 ExpMxC= 1.30D+03 IAcc=3 IRadAn=         5 AccDes= 0.00D+00
 Harris functional with IExCor= 4639 and IRadAn=       5 diagonalized for initial guess.
 HarFok:  IExCor= 4639 AccDes= 0.00D+00 IRadAn=         5 IDoV= 1 UseB2=F ITyADJ=14
 ICtDFT=  3500011 ScaDFX=  1.000000  1.000000  1.000000  1.000000
 FoFCou: FMM=F IPFlag=           0 FMFlag=      100000 FMFlg1=           0
         NFxFlg=           0 DoJE=T BraDBF=F KetDBF=T FulRan=T
         wScrn=  0.000000 ICntrl=       500 IOpCl=  0 I1Cent=   200000004 NGrid=           0
         NMat0=    1 NMatS0=      1 NMatT0=    0 NMatD0=    1 NMtDS0=    0 NMtDT0=    0
 Petite list used in FoFCou.
 Harris En= -73.6049448393464    
 JPrj=0 DoOrth=F DoCkMO=F.
 Initial guess orbital symmetries:
       Occupied  (A') (A') (A') (A') (A")
       Virtual   (A') (A') (A') (A') (A') (A") (A') (A') (A') (A")
                 (A") (A') (A') (A') (A') (A') (A") (A") (A') (A')
                 (A') (A") (A') (A') (A')
 The electronic state of the initial guess is 1-A'.
 Leave Link  401 at Wed Feb  8 14:40:26 2023, MaxMem=   754974720 cpu:               0.7 elap:               0.2
 (Enter /opt/cluster/programs/g16-c.01/g16/l502.exe)
 Keep R1 ints in memory in symmetry-blocked form, NReq=3688183.
 FoFCou: FMM=F IPFlag=           0 FMFlag=           0 FMFlg1=           0
         NFxFlg=           0 DoJE=F BraDBF=F KetDBF=F FulRan=T
         wScrn=  0.000000 ICntrl=       600 IOpCl=  0 I1Cent=           0 NGrid=           0
         NMat0=    1 NMatS0=    465 NMatT0=    0 NMatD0=    1 NMtDS0=    0 NMtDT0=    0
 Petite list used in FoFCou.
 Closed shell SCF:
 Using DIIS extrapolation, IDIIS=  1040.
 NGot=   754974720 LenX=   754911268 LenY=   754909866
 Requested convergence on RMS density matrix=1.00D-08 within 200 cycles.
 Requested convergence on MAX density matrix=1.00D-06.
 Requested convergence on             energy=1.00D-06.
 No special actions if energy rises.
 Integral accuracy reduced to 1.0D-05 until final iterations.

 Cycle   1  Pass 0  IDiag  1:
 E= -76.4107572203635    
 DIIS: error= 7.90D-02 at cycle   1 NSaved=   1.
 NSaved= 1 IEnMin= 1 EnMin= -76.4107572203635     IErMin= 1 ErrMin= 7.90D-02
 ErrMax= 7.90D-02  0.00D+00 EMaxC= 1.00D-01 BMatC= 1.28D-01 BMatP= 1.28D-01
 IDIUse=3 WtCom= 2.10D-01 WtEn= 7.90D-01
 Coeff-Com:  0.100D+01
 Coeff-En:   0.100D+01
 Coeff:      0.100D+01
 Gap=     0.496 Goal=   None    Shift=    0.000
 GapD=    0.496 DampG=2.000 DampE=0.500 DampFc=1.0000 IDamp=-1.
 RMSDP=2.48D-03 MaxDP=2.10D-02              OVMax= 3.66D-02

 Cycle   2  Pass 0  IDiag  1:
 E= -76.4198957978464     Delta-E=       -0.009138577483 Rises=F Damp=F
 DIIS: error= 7.53D-03 at cycle   2 NSaved=   2.
 NSaved= 2 IEnMin= 2 EnMin= -76.4198957978464     IErMin= 2 ErrMin= 7.53D-03
 ErrMax= 7.53D-03  0.00D+00 EMaxC= 1.00D-01 BMatC= 1.18D-03 BMatP= 1.28D-01
 IDIUse=3 WtCom= 9.25D-01 WtEn= 7.53D-02
 Coeff-Com:  0.434D-01 0.957D+00
 Coeff-En:   0.000D+00 0.100D+01
 Coeff:      0.401D-01 0.960D+00
 Gap=     0.522 Goal=   None    Shift=    0.000
 RMSDP=9.46D-04 MaxDP=1.19D-02 DE=-9.14D-03 OVMax= 1.19D-02

 Cycle   3  Pass 0  IDiag  1:
 E= -76.4201091061030     Delta-E=       -0.000213308257 Rises=F Damp=F
 DIIS: error= 6.23D-03 at cycle   3 NSaved=   3.
 NSaved= 3 IEnMin= 3 EnMin= -76.4201091061030     IErMin= 3 ErrMin= 6.23D-03
 ErrMax= 6.23D-03  0.00D+00 EMaxC= 1.00D-01 BMatC= 7.98D-04 BMatP= 1.18D-03
 IDIUse=3 WtCom= 9.38D-01 WtEn= 6.23D-02
 Coeff-Com:  0.208D-01 0.460D+00 0.519D+00
 Coeff-En:   0.000D+00 0.397D+00 0.603D+00
 Coeff:      0.195D-01 0.456D+00 0.524D+00
 Gap=     0.511 Goal=   None    Shift=    0.000
 RMSDP=4.43D-04 MaxDP=5.44D-03 DE=-2.13D-04 OVMax= 6.07D-03

 Cycle   4  Pass 0  IDiag  1:
 E= -76.4205849910215     Delta-E=       -0.000475884919 Rises=F Damp=F
 DIIS: error= 5.73D-04 at cycle   4 NSaved=   4.
 NSaved= 4 IEnMin= 4 EnMin= -76.4205849910215     IErMin= 4 ErrMin= 5.73D-04
 ErrMax= 5.73D-04  0.00D+00 EMaxC= 1.00D-01 BMatC= 5.70D-06 BMatP= 7.98D-04
 IDIUse=3 WtCom= 9.94D-01 WtEn= 5.73D-03
 Coeff-Com:  0.176D-02 0.508D-01 0.108D+00 0.840D+00
 Coeff-En:   0.000D+00 0.000D+00 0.000D+00 0.100D+01
 Coeff:      0.175D-02 0.505D-01 0.107D+00 0.841D+00
 Gap=     0.512 Goal=   None    Shift=    0.000
 RMSDP=5.04D-05 MaxDP=6.36D-04 DE=-4.76D-04 OVMax= 4.86D-04

 Cycle   5  Pass 0  IDiag  1:
 E= -76.4205886474320     Delta-E=       -0.000003656411 Rises=F Damp=F
 DIIS: error= 5.62D-05 at cycle   5 NSaved=   5.
 NSaved= 5 IEnMin= 5 EnMin= -76.4205886474320     IErMin= 5 ErrMin= 5.62D-05
 ErrMax= 5.62D-05  0.00D+00 EMaxC= 1.00D-01 BMatC= 7.32D-08 BMatP= 5.70D-06
 IDIUse=1 WtCom= 1.00D+00 WtEn= 0.00D+00
 Coeff-Com: -0.731D-03-0.191D-01-0.210D-01-0.258D-01 0.107D+01
 Coeff:     -0.731D-03-0.191D-01-0.210D-01-0.258D-01 0.107D+01
 Gap=     0.512 Goal=   None    Shift=    0.000
 RMSDP=1.64D-05 MaxDP=1.67D-04 DE=-3.66D-06 OVMax= 2.79D-04

 Cycle   6  Pass 0  IDiag  1:
 E= -76.4205887917533     Delta-E=       -0.000000144321 Rises=F Damp=F
 DIIS: error= 1.10D-05 at cycle   6 NSaved=   6.
 NSaved= 6 IEnMin= 6 EnMin= -76.4205887917533     IErMin= 6 ErrMin= 1.10D-05
 ErrMax= 1.10D-05  0.00D+00 EMaxC= 1.00D-01 BMatC= 3.19D-09 BMatP= 7.32D-08
 IDIUse=1 WtCom= 1.00D+00 WtEn= 0.00D+00
 Coeff-Com:  0.116D-03 0.260D-02 0.352D-02-0.113D-01-0.202D+00 0.121D+01
 Coeff:      0.116D-03 0.260D-02 0.352D-02-0.113D-01-0.202D+00 0.121D+01
 Gap=     0.512 Goal=   None    Shift=    0.000
 RMSDP=4.22D-06 MaxDP=5.08D-05 DE=-1.44D-07 OVMax= 7.17D-05

 Initial convergence to 1.0D-05 achieved.  Increase integral accuracy.
 Cycle   7  Pass 1  IDiag  1:
 E= -76.4205926216188     Delta-E=       -0.000003829865 Rises=F Damp=F
 DIIS: error= 1.56D-05 at cycle   1 NSaved=   1.
 NSaved= 1 IEnMin= 1 EnMin= -76.4205926216188     IErMin= 1 ErrMin= 1.56D-05
 ErrMax= 1.56D-05  0.00D+00 EMaxC= 1.00D-01 BMatC= 7.77D-09 BMatP= 7.77D-09
 IDIUse=1 WtCom= 1.00D+00 WtEn= 0.00D+00
 Coeff-Com:  0.100D+01
 Coeff:      0.100D+01
 Gap=     0.512 Goal=   None    Shift=    0.000
 RMSDP=4.22D-06 MaxDP=5.08D-05 DE=-3.83D-06 OVMax= 2.21D-05

 Cycle   8  Pass 1  IDiag  1:
 E= -76.4205926271766     Delta-E=       -0.000000005558 Rises=F Damp=F
 DIIS: error= 3.74D-06 at cycle   2 NSaved=   2.
 NSaved= 2 IEnMin= 2 EnMin= -76.4205926271766     IErMin= 2 ErrMin= 3.74D-06
 ErrMax= 3.74D-06  0.00D+00 EMaxC= 1.00D-01 BMatC= 3.11D-10 BMatP= 7.77D-09
 IDIUse=1 WtCom= 1.00D+00 WtEn= 0.00D+00
 Coeff-Com: -0.821D-02 0.101D+01
 Coeff:     -0.821D-02 0.101D+01
 Gap=     0.512 Goal=   None    Shift=    0.000
 RMSDP=6.01D-07 MaxDP=6.00D-06 DE=-5.56D-09 OVMax= 7.73D-06

 Cycle   9  Pass 1  IDiag  1:
 E= -76.4205926272425     Delta-E=       -0.000000000066 Rises=F Damp=F
 DIIS: error= 3.44D-06 at cycle   3 NSaved=   3.
 NSaved= 3 IEnMin= 3 EnMin= -76.4205926272425     IErMin= 3 ErrMin= 3.44D-06
 ErrMax= 3.44D-06  0.00D+00 EMaxC= 1.00D-01 BMatC= 2.72D-10 BMatP= 3.11D-10
 IDIUse=1 WtCom= 1.00D+00 WtEn= 0.00D+00
 Coeff-Com: -0.404D-01 0.506D+00 0.535D+00
 Coeff:     -0.404D-01 0.506D+00 0.535D+00
 Gap=     0.512 Goal=   None    Shift=    0.000
 RMSDP=2.56D-07 MaxDP=3.45D-06 DE=-6.58D-11 OVMax= 3.46D-06

 Cycle  10  Pass 1  IDiag  1:
 E= -76.4205926274069     Delta-E=       -0.000000000164 Rises=F Damp=F
 DIIS: error= 1.70D-07 at cycle   4 NSaved=   4.
 NSaved= 4 IEnMin= 4 EnMin= -76.4205926274069     IErMin= 4 ErrMin= 1.70D-07
 ErrMax= 1.70D-07  0.00D+00 EMaxC= 1.00D-01 BMatC= 8.09D-13 BMatP= 2.72D-10
 IDIUse=1 WtCom= 1.00D+00 WtEn= 0.00D+00
 Coeff-Com: -0.527D-02 0.323D-01 0.519D-01 0.921D+00
 Coeff:     -0.527D-02 0.323D-01 0.519D-01 0.921D+00
 Gap=     0.512 Goal=   None    Shift=    0.000
 RMSDP=3.60D-08 MaxDP=4.28D-07 DE=-1.64D-10 OVMax= 5.43D-07

 Cycle  11  Pass 1  IDiag  1:
 E= -76.4205926274079     Delta-E=       -0.000000000001 Rises=F Damp=F
 DIIS: error= 3.59D-08 at cycle   5 NSaved=   5.
 NSaved= 5 IEnMin= 5 EnMin= -76.4205926274079     IErMin= 5 ErrMin= 3.59D-08
 ErrMax= 3.59D-08  0.00D+00 EMaxC= 1.00D-01 BMatC= 3.57D-14 BMatP= 8.09D-13
 IDIUse=1 WtCom= 1.00D+00 WtEn= 0.00D+00
 Coeff-Com:  0.113D-02-0.162D-01-0.151D-01 0.175D-01 0.101D+01
 Coeff:      0.113D-02-0.162D-01-0.151D-01 0.175D-01 0.101D+01
 Gap=     0.512 Goal=   None    Shift=    0.000
 RMSDP=1.37D-08 MaxDP=1.59D-07 DE=-9.81D-13 OVMax= 2.61D-07

 Cycle  12  Pass 1  IDiag  1:
 E= -76.4205926274080     Delta-E=       -0.000000000000 Rises=F Damp=F
 DIIS: error= 1.31D-08 at cycle   6 NSaved=   6.
 NSaved= 6 IEnMin= 6 EnMin= -76.4205926274080     IErMin= 6 ErrMin= 1.31D-08
 ErrMax= 1.31D-08  0.00D+00 EMaxC= 1.00D-01 BMatC= 3.50D-15 BMatP= 3.57D-14
 IDIUse=1 WtCom= 1.00D+00 WtEn= 0.00D+00
 Coeff-Com:  0.165D-03 0.259D-03 0.135D-02-0.509D-01-0.171D+00 0.122D+01
 Coeff:      0.165D-03 0.259D-03 0.135D-02-0.509D-01-0.171D+00 0.122D+01
 Gap=     0.512 Goal=   None    Shift=    0.000
 RMSDP=4.83D-09 MaxDP=5.16D-08 DE=-9.95D-14 OVMax= 9.37D-08

 SCF Done:  E(RwB97XD) =  -76.4205926274     A.U. after   12 cycles
            NFock= 12  Conv=0.48D-08     -V/T= 2.0003
 KE= 7.639931830445D+01 PE=-2.000533853418D+02 EE= 3.779857859826D+01
 Leave Link  502 at Wed Feb  8 14:40:27 2023, MaxMem=   754974720 cpu:               2.2 elap:               0.5
 (Enter /opt/cluster/programs/g16-c.01/g16/l601.exe)
 Copying SCF densities to generalized density rwf, IOpCl= 0 IROHF=0.

 **********************************************************************

            Population analysis using the SCF Density.

 **********************************************************************

 Orbital symmetries:
       Occupied  (A') (A') (A') (A') (A")
       Virtual   (A') (A') (A') (A') (A') (A") (A') (A') (A') (A")
                 (A") (A') (A') (A') (A') (A') (A") (A") (A') (A')
                 (A') (A") (A') (A') (A')
 The electronic state is 1-A'.
 Alpha  occ. eigenvalues --  -19.22257  -1.11633  -0.61622  -0.46894  -0.38905
 Alpha virt. eigenvalues --    0.12307   0.19759   0.47099   0.53352   0.85013
 Alpha virt. eigenvalues --    0.85425   0.95688   1.15381   1.29687   1.36295
 Alpha virt. eigenvalues --    1.54227   1.78064   2.03602   2.18175   2.39234
 Alpha virt. eigenvalues --    2.57452   3.21895   3.28178   3.44781   3.69518
 Alpha virt. eigenvalues --    3.96836   4.88662   5.33978   5.80309  50.02110
          Condensed to atoms (all electrons):
               1          2          3
     1  O    7.831762   0.327442   0.317964
     2  H    0.327442   0.465723  -0.032630
     3  H    0.317964  -0.032630   0.476962
 Mulliken charges:
               1
     1  O   -0.477168
     2  H    0.239464
     3  H    0.237704
 Sum of Mulliken charges =   0.00000
 Mulliken charges with hydrogens summed into heavy atoms:
               1
     1  O    0.000000
 Electronic spatial extent (au):  <R**2>=             18.7014
 Charge=              0.0000 electrons
 Dipole moment (field-independent basis, Debye):
    X=              0.0434    Y=             -2.1082    Z=              0.0000  Tot=              2.1086
 Quadrupole moment (field-independent basis, Debye-Ang):
   XX=             -4.3525   YY=             -5.9605   ZZ=             -7.1129
   XY=              0.1169   XZ=              0.0000   YZ=              0.0000
 Traceless Quadrupole moment (field-independent basis, Debye-Ang):
   XX=              1.4561   YY=             -0.1518   ZZ=             -1.3043
   XY=              0.1169   XZ=              0.0000   YZ=              0.0000
 Octapole moment (field-independent basis, Debye-Ang**2):
  XXX=              0.0977  YYY=             -1.3170  ZZZ=              0.0000  XYY=             -0.0665
  XXY=             -1.1939  XXZ=              0.0000  XZZ=              0.0358  YZZ=             -0.3554
  YYZ=              0.0000  XYZ=              0.0000
 Hexadecapole moment (field-independent basis, Debye-Ang**3):
 XXXX=             -5.6908 YYYY=             -6.1147 ZZZZ=             -5.1693 XXXY=             -0.0325
 XXXZ=              0.0000 YYYX=             -0.0122 YYYZ=              0.0000 ZZZX=              0.0000
 ZZZY=              0.0000 XXYY=             -1.6458 XXZZ=             -2.0490 YYZZ=             -1.9363
 XXYZ=              0.0000 YYXZ=              0.0000 ZZXY=             -0.0358
 N-N= 9.434895811705D+00 E-N=-2.000533854828D+02  KE= 7.639931830445D+01
 Symmetry A'   KE= 7.176385825092D+01
 Symmetry A"   KE= 4.635460053534D+00
 No NMR shielding tensors so no spin-rotation constants.
 Leave Link  601 at Wed Feb  8 14:40:27 2023, MaxMem=   754974720 cpu:               0.5 elap:               0.2
 (Enter /opt/cluster/programs/g16-c.01/g16/l9999.exe)
 Unable to Open any file for archive entry.
 1\1\GINC-NODE58\SP\RwB97XD\6-311G(d,p)\H2O1\BOITTIER\08-Feb-2023\0\\#P
  wB97XD/6-311g** scf(maxcycle=200)\\Gaussian input\\0,1\O,0,0.,0.11751
 ,0.\H,0,0.7183372325,-0.4395112028,0.\H,0,-0.7372242814,-0.4958262527,
 0.\\Version=ES64L-G16RevC.01\State=1-A'\HF=-76.4205926\RMSD=4.830e-09\
 Dipole=0.0036906,-0.8295955,0.\Quadrupole=1.0850631,-0.1153742,-0.9696
 889,0.0676111,0.,0.\PG=CS [SG(H2O1)]\\@
 The archive entry for this job was punched.


 HICKORY, DICKORY, DOCK
 TWO MICE RAN UP THE CLOCK
 THE CLOCK STRUCK ONE...
 THE OTHER ESCAPED WITH MINOR INJURIES.
 Job cpu time:       0 days  0 hours  0 minutes  5.8 seconds.
 Elapsed time:       0 days  0 hours  0 minutes  1.9 seconds.
 File lengths (MBytes):  RWF=      6 Int=      0 D2E=      0 Chk=      1 Scr=      1
 Normal termination of Gaussian 16 at Wed Feb  8 14:40:27 2023.
