 Entering Gaussian System, Link 0=/opt/cluster/programs/g16-c.01/g16/g16
 Input=/scratch/boittier/jobs/tmp.7262378/gaussian_159_water_ccsdt_adz.com
 Output=/scratch/boittier/jobs/tmp.7262378/gaussian_159_water_ccsdt_adz.out
 Initial command:
 /opt/cluster/programs/g16-c.01/g16/l1.exe "/scratch/boittier/jobs/tmp.7262378/Gau-154904.inp" -scrdir="/scratch/boittier/jobs/tmp.7262378/"
 Entering Link 1 = /opt/cluster/programs/g16-c.01/g16/l1.exe PID=    154905.
  
 Copyright (c) 1988-2019, Gaussian, Inc.  All Rights Reserved.
  
 This is part of the Gaussian(R) 16 program.  It is based on
 the Gaussian(R) 09 system (copyright 2009, Gaussian, Inc.),
 the Gaussian(R) 03 system (copyright 2003, Gaussian, Inc.),
 the Gaussian(R) 98 system (copyright 1998, Gaussian, Inc.),
 the Gaussian(R) 94 system (copyright 1995, Gaussian, Inc.),
 the Gaussian 92(TM) system (copyright 1992, Gaussian, Inc.),
 the Gaussian 90(TM) system (copyright 1990, Gaussian, Inc.),
 the Gaussian 88(TM) system (copyright 1988, Gaussian, Inc.),
 the Gaussian 86(TM) system (copyright 1986, Carnegie Mellon
 University), and the Gaussian 82(TM) system (copyright 1983,
 Carnegie Mellon University). Gaussian is a federally registered
 trademark of Gaussian, Inc.
  
 This software contains proprietary and confidential information,
 including trade secrets, belonging to Gaussian, Inc.
  
 This software is provided under written license and may be
 used, copied, transmitted, or stored only in accord with that
 written license.
  
 The following legend is applicable only to US Government
 contracts under FAR:
  
                    RESTRICTED RIGHTS LEGEND
  
 Use, reproduction and disclosure by the US Government is
 subject to restrictions as set forth in subparagraphs (a)
 and (c) of the Commercial Computer Software - Restricted
 Rights clause in FAR 52.227-19.
  
 Gaussian, Inc.
 340 Quinnipiac St., Bldg. 40, Wallingford CT 06492
  
  
 ---------------------------------------------------------------
 Warning -- This program may not be used in any manner that
 competes with the business of Gaussian, Inc. or will provide
 assistance to any competitor of Gaussian, Inc.  The licensee
 of this program is prohibited from giving any competitor of
 Gaussian, Inc. access to this program.  By using this program,
 the user acknowledges that Gaussian, Inc. is engaged in the
 business of creating and licensing software in the field of
 computational chemistry and represents and warrants to the
 licensee that it is not a competitor of Gaussian, Inc. and that
 it will not use this program in any manner prohibited above.
 ---------------------------------------------------------------
  

 Cite this work as:
 Gaussian 16, Revision C.01,
 M. J. Frisch, G. W. Trucks, H. B. Schlegel, G. E. Scuseria, 
 M. A. Robb, J. R. Cheeseman, G. Scalmani, V. Barone, 
 G. A. Petersson, H. Nakatsuji, X. Li, M. Caricato, A. V. Marenich, 
 J. Bloino, B. G. Janesko, R. Gomperts, B. Mennucci, H. P. Hratchian, 
 J. V. Ortiz, A. F. Izmaylov, J. L. Sonnenberg, D. Williams-Young, 
 F. Ding, F. Lipparini, F. Egidi, J. Goings, B. Peng, A. Petrone, 
 T. Henderson, D. Ranasinghe, V. G. Zakrzewski, J. Gao, N. Rega, 
 G. Zheng, W. Liang, M. Hada, M. Ehara, K. Toyota, R. Fukuda, 
 J. Hasegawa, M. Ishida, T. Nakajima, Y. Honda, O. Kitao, H. Nakai, 
 T. Vreven, K. Throssell, J. A. Montgomery, Jr., J. E. Peralta, 
 F. Ogliaro, M. J. Bearpark, J. J. Heyd, E. N. Brothers, K. N. Kudin, 
 V. N. Staroverov, T. A. Keith, R. Kobayashi, J. Normand, 
 K. Raghavachari, A. P. Rendell, J. C. Burant, S. S. Iyengar, 
 J. Tomasi, M. Cossi, J. M. Millam, M. Klene, C. Adamo, R. Cammi, 
 J. W. Ochterski, R. L. Martin, K. Morokuma, O. Farkas, 
 J. B. Foresman, and D. J. Fox, Gaussian, Inc., Wallingford CT, 2019.
 
 ******************************************
 Gaussian 16:  ES64L-G16RevC.01  3-Jul-2019
                 8-Feb-2023 
 ******************************************
 %nproc=4
 Will use up to    4 processors via shared memory.
 %mem=5760MB
 %chk=gaussian_159_water_ccsdt_adz.chk
 ----------------------------------------
 #P CCSD(T)/aug-cc-pVDZ scf(maxcycle=200)
 ----------------------------------------
 1/38=1,172=1/1;
 2/12=2,17=6,18=5,40=1/2;
 3/5=16,7=10,11=9,25=1,30=1/1,2,3;
 4//1;
 5/5=2,7=200,38=5/2;
 8/6=4,9=120000,10=1/1,4;
 9/5=7,14=2/13;
 6/7=2,8=2,9=2,10=2/1;
 99/5=1,9=1/99;
 Leave Link    1 at Wed Feb  8 14:50:59 2023, MaxMem=   754974720 cpu:               0.1 elap:               0.0
 (Enter /opt/cluster/programs/g16-c.01/g16/l101.exe)
 --------------
 Gaussian input
 --------------
 Symbolic Z-matrix:
 Charge =  0 Multiplicity = 1
 O                     0.        0.11751   0. 
 H                     0.79736  -0.50079   0. 
 H                    -0.90254  -0.20669   0. 
 
 ITRead=  0  0  0
 MicOpt= -1 -1 -1
 NAtoms=      3 NQM=        3 NQMF=       0 NMMI=      0 NMMIF=      0
                NMic=       0 NMicF=      0.
                    Isotopes and Nuclear Properties:
 (Nuclear quadrupole moments (NQMom) in fm**2, nuclear magnetic moments (NMagM)
  in nuclear magnetons)

  Atom         1           2           3
 IAtWgt=          16           1           1
 AtmWgt=  15.9949146   1.0078250   1.0078250
 NucSpn=           0           1           1
 AtZEff=  -0.0000000  -0.0000000  -0.0000000
 NQMom=    0.0000000   0.0000000   0.0000000
 NMagM=    0.0000000   2.7928460   2.7928460
 AtZNuc=   8.0000000   1.0000000   1.0000000
 Leave Link  101 at Wed Feb  8 14:50:59 2023, MaxMem=   754974720 cpu:               0.6 elap:               0.2
 (Enter /opt/cluster/programs/g16-c.01/g16/l202.exe)
                          Input orientation:                          
 ---------------------------------------------------------------------
 Center     Atomic      Atomic             Coordinates (Angstroms)
 Number     Number       Type             X           Y           Z
 ---------------------------------------------------------------------
      1          8           0        0.000000    0.117510    0.000000
      2          1           0        0.797362   -0.500790    0.000000
      3          1           0       -0.902538   -0.206692    0.000000
 ---------------------------------------------------------------------
                    Distance matrix (angstroms):
                    1          2          3
     1  O    0.000000
     2  H    1.009000   0.000000
     3  H    0.959000   1.725153   0.000000
 Stoichiometry    H2O
 Framework group  CS[SG(H2O)]
 Deg. of freedom     3
 Full point group                 CS      NOp   2
 Largest Abelian subgroup         CS      NOp   2
 Largest concise Abelian subgroup C1      NOp   1
                         Standard orientation:                         
 ---------------------------------------------------------------------
 Center     Atomic      Atomic             Coordinates (Angstroms)
 Number     Number       Type             X           Y           Z
 ---------------------------------------------------------------------
      1          8           0        0.000000    0.094835   -0.000000
      2          1           0        0.861015   -0.431220   -0.000000
      3          1           0       -0.861015   -0.327461    0.000000
 ---------------------------------------------------------------------
 Rotational constants (GHZ):        1261.8774508         336.5363500         265.6806587
 Leave Link  202 at Wed Feb  8 14:50:59 2023, MaxMem=   754974720 cpu:               0.1 elap:               0.0
 (Enter /opt/cluster/programs/g16-c.01/g16/l301.exe)
 Standard basis: Aug-CC-pVDZ (5D, 7F)
 Ernie: Thresh=  0.10000D-02 Tol=  0.10000D-05 Strict=F.
 Ernie:  2 primitive shells out of 39 were deleted.
 There are    32 symmetry adapted cartesian basis functions of A'  symmetry.
 There are    11 symmetry adapted cartesian basis functions of A"  symmetry.
 There are    30 symmetry adapted basis functions of A'  symmetry.
 There are    11 symmetry adapted basis functions of A"  symmetry.
    41 basis functions,    65 primitive gaussians,    43 cartesian basis functions
     5 alpha electrons        5 beta electrons
       nuclear repulsion energy         8.9168074057 Hartrees.
 IExCor=    0 DFT=F Ex=HF Corr=None ExCW=0 ScaHFX=  1.000000
 ScaDFX=  1.000000  1.000000  1.000000  1.000000 ScalE2=  1.000000  1.000000
 IRadAn=      5 IRanWt=     -1 IRanGd=            0 ICorTp=0 IEmpDi=  4
 NAtoms=    3 NActive=    3 NUniq=    3 SFac= 1.00D+00 NAtFMM=   60 NAOKFM=F Big=F
 Integral buffers will be    131072 words long.
 Raffenetti 1 integral format.
 Two-electron integral symmetry is turned on.
 Leave Link  301 at Wed Feb  8 14:50:59 2023, MaxMem=   754974720 cpu:               0.1 elap:               0.0
 (Enter /opt/cluster/programs/g16-c.01/g16/l302.exe)
 NPDir=0 NMtPBC=     1 NCelOv=     1 NCel=       1 NClECP=     1 NCelD=      1
         NCelK=      1 NCelE2=     1 NClLst=     1 CellRange=     0.0.
 One-electron integrals computed using PRISM.
 One-electron integral symmetry used in STVInt
 NBasis=    41 RedAO= T EigKep=  3.04D-03  NBF=    30    11
 NBsUse=    41 1.00D-06 EigRej= -1.00D+00 NBFU=    30    11
 Leave Link  302 at Wed Feb  8 14:50:59 2023, MaxMem=   754974720 cpu:               0.5 elap:               0.1
 (Enter /opt/cluster/programs/g16-c.01/g16/l303.exe)
 DipDrv:  MaxL=1.
 Leave Link  303 at Wed Feb  8 14:50:59 2023, MaxMem=   754974720 cpu:               0.2 elap:               0.1
 (Enter /opt/cluster/programs/g16-c.01/g16/l401.exe)
 ExpMin= 2.97D-02 ExpMax= 1.17D+04 ExpMxC= 4.01D+02 IAcc=3 IRadAn=         5 AccDes= 0.00D+00
 Harris functional with IExCor=  205 and IRadAn=       5 diagonalized for initial guess.
 HarFok:  IExCor=  205 AccDes= 0.00D+00 IRadAn=         5 IDoV= 1 UseB2=F ITyADJ=14
 ICtDFT=  3500011 ScaDFX=  1.000000  1.000000  1.000000  1.000000
 FoFCou: FMM=F IPFlag=           0 FMFlag=      100000 FMFlg1=           0
         NFxFlg=           0 DoJE=T BraDBF=F KetDBF=T FulRan=T
         wScrn=  0.000000 ICntrl=       500 IOpCl=  0 I1Cent=   200000004 NGrid=           0
         NMat0=    1 NMatS0=      1 NMatT0=    0 NMatD0=    1 NMtDS0=    0 NMtDT0=    0
 Petite list used in FoFCou.
 Harris En= -76.1184389991769    
 JPrj=0 DoOrth=F DoCkMO=F.
 Initial guess orbital symmetries:
       Occupied  (A') (A') (A') (A') (A")
       Virtual   (A') (A') (A') (A") (A') (A') (A') (A') (A") (A')
                 (A") (A') (A') (A') (A') (A') (A") (A') (A") (A")
                 (A') (A') (A') (A') (A") (A") (A') (A') (A') (A')
                 (A') (A") (A') (A") (A') (A')
 The electronic state of the initial guess is 1-A'.
 Leave Link  401 at Wed Feb  8 14:50:59 2023, MaxMem=   754974720 cpu:               0.7 elap:               0.2
 (Enter /opt/cluster/programs/g16-c.01/g16/l502.exe)
 Keep R1 ints in memory in symmetry-blocked form, NReq=1210668.
 FoFCou: FMM=F IPFlag=           0 FMFlag=           0 FMFlg1=           0
         NFxFlg=           0 DoJE=F BraDBF=F KetDBF=F FulRan=T
         wScrn=  0.000000 ICntrl=       600 IOpCl=  0 I1Cent=           0 NGrid=           0
         NMat0=    1 NMatS0=    861 NMatT0=    0 NMatD0=    1 NMtDS0=    0 NMtDT0=    0
 Petite list used in FoFCou.
 Closed shell SCF:
 Using DIIS extrapolation, IDIIS=  1040.
 NGot=   754974720 LenX=   754771907 LenY=   754769617
 Requested convergence on RMS density matrix=1.00D-08 within 200 cycles.
 Requested convergence on MAX density matrix=1.00D-06.
 Requested convergence on             energy=1.00D-06.
 No special actions if energy rises.

 Cycle   1  Pass 1  IDiag  1:
 E= -75.9536024101786    
 DIIS: error= 5.11D-02 at cycle   1 NSaved=   1.
 NSaved= 1 IEnMin= 1 EnMin= -75.9536024101786     IErMin= 1 ErrMin= 5.11D-02
 ErrMax= 5.11D-02  0.00D+00 EMaxC= 1.00D-01 BMatC= 1.17D-01 BMatP= 1.17D-01
 IDIUse=3 WtCom= 4.89D-01 WtEn= 5.11D-01
 Coeff-Com:  0.100D+01
 Coeff-En:   0.100D+01
 Coeff:      0.100D+01
 Gap=     0.456 Goal=   None    Shift=    0.000
 GapD=    0.456 DampG=2.000 DampE=0.500 DampFc=1.0000 IDamp=-1.
 RMSDP=6.24D-03 MaxDP=1.18D-01              OVMax= 1.21D-01

 Cycle   2  Pass 1  IDiag  1:
 E= -75.9969355229931     Delta-E=       -0.043333112815 Rises=F Damp=F
 DIIS: error= 4.06D-02 at cycle   2 NSaved=   2.
 NSaved= 2 IEnMin= 2 EnMin= -75.9969355229931     IErMin= 2 ErrMin= 4.06D-02
 ErrMax= 4.06D-02  0.00D+00 EMaxC= 1.00D-01 BMatC= 4.65D-02 BMatP= 1.17D-01
 IDIUse=3 WtCom= 5.94D-01 WtEn= 4.06D-01
 Coeff-Com:  0.377D+00 0.623D+00
 Coeff-En:   0.224D+00 0.776D+00
 Coeff:      0.315D+00 0.685D+00
 Gap=     0.554 Goal=   None    Shift=    0.000
 RMSDP=2.93D-03 MaxDP=5.49D-02 DE=-4.33D-02 OVMax= 5.97D-02

 Cycle   3  Pass 1  IDiag  1:
 E= -76.0291573260074     Delta-E=       -0.032221803014 Rises=F Damp=F
 DIIS: error= 4.73D-03 at cycle   3 NSaved=   3.
 NSaved= 3 IEnMin= 3 EnMin= -76.0291573260074     IErMin= 3 ErrMin= 4.73D-03
 ErrMax= 4.73D-03  0.00D+00 EMaxC= 1.00D-01 BMatC= 1.15D-03 BMatP= 4.65D-02
 IDIUse=3 WtCom= 9.53D-01 WtEn= 4.73D-02
 Coeff-Com: -0.371D-01 0.922D-01 0.945D+00
 Coeff-En:   0.000D+00 0.000D+00 0.100D+01
 Coeff:     -0.354D-01 0.878D-01 0.948D+00
 Gap=     0.536 Goal=   None    Shift=    0.000
 RMSDP=4.71D-04 MaxDP=8.21D-03 DE=-3.22D-02 OVMax= 9.11D-03

 Cycle   4  Pass 1  IDiag  1:
 E= -76.0300365095587     Delta-E=       -0.000879183551 Rises=F Damp=F
 DIIS: error= 6.30D-04 at cycle   4 NSaved=   4.
 NSaved= 4 IEnMin= 4 EnMin= -76.0300365095587     IErMin= 4 ErrMin= 6.30D-04
 ErrMax= 6.30D-04  0.00D+00 EMaxC= 1.00D-01 BMatC= 8.26D-06 BMatP= 1.15D-03
 IDIUse=3 WtCom= 9.94D-01 WtEn= 6.30D-03
 Coeff-Com:  0.810D-02-0.424D-01-0.319D+00 0.135D+01
 Coeff-En:   0.000D+00 0.000D+00 0.000D+00 0.100D+01
 Coeff:      0.805D-02-0.421D-01-0.317D+00 0.135D+01
 Gap=     0.537 Goal=   None    Shift=    0.000
 RMSDP=1.25D-04 MaxDP=1.15D-03 DE=-8.79D-04 OVMax= 2.64D-03

 Cycle   5  Pass 1  IDiag  1:
 E= -76.0300579109472     Delta-E=       -0.000021401389 Rises=F Damp=F
 DIIS: error= 1.80D-04 at cycle   5 NSaved=   5.
 NSaved= 5 IEnMin= 5 EnMin= -76.0300579109472     IErMin= 5 ErrMin= 1.80D-04
 ErrMax= 1.80D-04  0.00D+00 EMaxC= 1.00D-01 BMatC= 4.27D-07 BMatP= 8.26D-06
 IDIUse=3 WtCom= 9.98D-01 WtEn= 1.80D-03
 Coeff-Com:  0.417D-03 0.200D-02 0.105D-01-0.265D+00 0.125D+01
 Coeff-En:   0.000D+00 0.000D+00 0.000D+00 0.000D+00 0.100D+01
 Coeff:      0.417D-03 0.200D-02 0.105D-01-0.265D+00 0.125D+01
 Gap=     0.537 Goal=   None    Shift=    0.000
 RMSDP=3.41D-05 MaxDP=4.08D-04 DE=-2.14D-05 OVMax= 8.09D-04

 Cycle   6  Pass 1  IDiag  1:
 E= -76.0300593360303     Delta-E=       -0.000001425083 Rises=F Damp=F
 DIIS: error= 3.75D-05 at cycle   6 NSaved=   6.
 NSaved= 6 IEnMin= 6 EnMin= -76.0300593360303     IErMin= 6 ErrMin= 3.75D-05
 ErrMax= 3.75D-05  0.00D+00 EMaxC= 1.00D-01 BMatC= 1.90D-08 BMatP= 4.27D-07
 IDIUse=1 WtCom= 1.00D+00 WtEn= 0.00D+00
 Coeff-Com: -0.447D-03 0.161D-02 0.136D-01-0.199D-01-0.254D+00 0.126D+01
 Coeff:     -0.447D-03 0.161D-02 0.136D-01-0.199D-01-0.254D+00 0.126D+01
 Gap=     0.537 Goal=   None    Shift=    0.000
 RMSDP=6.66D-06 MaxDP=1.05D-04 DE=-1.43D-06 OVMax= 1.94D-04

 Cycle   7  Pass 1  IDiag  1:
 E= -76.0300594017807     Delta-E=       -0.000000065750 Rises=F Damp=F
 DIIS: error= 8.59D-06 at cycle   7 NSaved=   7.
 NSaved= 7 IEnMin= 7 EnMin= -76.0300594017807     IErMin= 7 ErrMin= 8.59D-06
 ErrMax= 8.59D-06  0.00D+00 EMaxC= 1.00D-01 BMatC= 9.86D-10 BMatP= 1.90D-08
 IDIUse=1 WtCom= 1.00D+00 WtEn= 0.00D+00
 Coeff-Com:  0.171D-03-0.793D-03-0.656D-02 0.236D-01 0.442D-01-0.516D+00
 Coeff-Com:  0.146D+01
 Coeff:      0.171D-03-0.793D-03-0.656D-02 0.236D-01 0.442D-01-0.516D+00
 Coeff:      0.146D+01
 Gap=     0.537 Goal=   None    Shift=    0.000
 RMSDP=1.36D-06 MaxDP=2.83D-05 DE=-6.58D-08 OVMax= 4.21D-05

 Cycle   8  Pass 1  IDiag  1:
 E= -76.0300594047633     Delta-E=       -0.000000002983 Rises=F Damp=F
 DIIS: error= 1.23D-06 at cycle   8 NSaved=   8.
 NSaved= 8 IEnMin= 8 EnMin= -76.0300594047633     IErMin= 8 ErrMin= 1.23D-06
 ErrMax= 1.23D-06  0.00D+00 EMaxC= 1.00D-01 BMatC= 2.60D-11 BMatP= 9.86D-10
 IDIUse=1 WtCom= 1.00D+00 WtEn= 0.00D+00
 Coeff-Com: -0.205D-04 0.111D-03 0.994D-03-0.503D-02 0.730D-03 0.735D-01
 Coeff-Com: -0.345D+00 0.127D+01
 Coeff:     -0.205D-04 0.111D-03 0.994D-03-0.503D-02 0.730D-03 0.735D-01
 Coeff:     -0.345D+00 0.127D+01
 Gap=     0.537 Goal=   None    Shift=    0.000
 RMSDP=2.32D-07 MaxDP=3.27D-06 DE=-2.98D-09 OVMax= 4.68D-06

 Cycle   9  Pass 1  IDiag  1:
 E= -76.0300594048234     Delta-E=       -0.000000000060 Rises=F Damp=F
 DIIS: error= 1.32D-07 at cycle   9 NSaved=   9.
 NSaved= 9 IEnMin= 9 EnMin= -76.0300594048234     IErMin= 9 ErrMin= 1.32D-07
 ErrMax= 1.32D-07  0.00D+00 EMaxC= 1.00D-01 BMatC= 4.16D-13 BMatP= 2.60D-11
 IDIUse=1 WtCom= 1.00D+00 WtEn= 0.00D+00
 Coeff-Com: -0.509D-05 0.237D-04 0.193D-03-0.648D-03-0.134D-02 0.140D-01
 Coeff-Com: -0.348D-01-0.339D-01 0.106D+01
 Coeff:     -0.509D-05 0.237D-04 0.193D-03-0.648D-03-0.134D-02 0.140D-01
 Coeff:     -0.348D-01-0.339D-01 0.106D+01
 Gap=     0.537 Goal=   None    Shift=    0.000
 RMSDP=2.91D-08 MaxDP=2.94D-07 DE=-6.01D-11 OVMax= 4.58D-07

 Cycle  10  Pass 1  IDiag  1:
 E= -76.0300594048242     Delta-E=       -0.000000000001 Rises=F Damp=F
 DIIS: error= 3.74D-08 at cycle  10 NSaved=  10.
 NSaved=10 IEnMin=10 EnMin= -76.0300594048242     IErMin=10 ErrMin= 3.74D-08
 ErrMax= 3.74D-08  0.00D+00 EMaxC= 1.00D-01 BMatC= 2.40D-14 BMatP= 4.16D-13
 IDIUse=1 WtCom= 1.00D+00 WtEn= 0.00D+00
 Coeff-Com:  0.162D-05-0.803D-05-0.680D-04 0.278D-03 0.326D-03-0.533D-02
 Coeff-Com:  0.186D-01-0.329D-01-0.276D+00 0.130D+01
 Coeff:      0.162D-05-0.803D-05-0.680D-04 0.278D-03 0.326D-03-0.533D-02
 Coeff:      0.186D-01-0.329D-01-0.276D+00 0.130D+01
 Gap=     0.537 Goal=   None    Shift=    0.000
 RMSDP=7.53D-09 MaxDP=8.39D-08 DE=-7.96D-13 OVMax= 1.40D-07

 SCF Done:  E(RHF) =  -76.0300594048     A.U. after   10 cycles
            NFock= 10  Conv=0.75D-08     -V/T= 2.0030
 KE= 7.580386531772D+01 PE=-1.983256305883D+02 EE= 3.757489846005D+01
 Leave Link  502 at Wed Feb  8 14:51:00 2023, MaxMem=   754974720 cpu:               0.6 elap:               0.2
 (Enter /opt/cluster/programs/g16-c.01/g16/l801.exe)
 Windowed orbitals will be sorted by symmetry type.
 ExpMin= 2.97D-02 ExpMax= 1.17D+04 ExpMxC= 4.01D+02 IAcc=3 IRadAn=         5 AccDes= 0.00D+00
 HarFok:  IExCor=  205 AccDes= 0.00D+00 IRadAn=         5 IDoV=-2 UseB2=F ITyADJ=14
 ICtDFT= 12500011 ScaDFX=  1.000000  1.000000  1.000000  1.000000
 Largest valence mixing into a core orbital is  6.11D-05
 Largest core mixing into a valence orbital is  1.83D-05
 Range of M.O.s used for correlation:     2    41
 NBasis=    41 NAE=     5 NBE=     5 NFC=     1 NFV=     0
 NROrb=     40 NOA=     4 NOB=     4 NVA=    36 NVB=    36
 Leave Link  801 at Wed Feb  8 14:51:00 2023, MaxMem=   754974720 cpu:               0.3 elap:               0.1
 (Enter /opt/cluster/programs/g16-c.01/g16/l804.exe)
 Closed-shell transformation, MDV=   754974720 ITran=4 ISComp=2.
 Unit  1 TFree=         57024 TCopy=        242858.
 Semi-Direct transformation.
 ModeAB=           2 MOrb=             4 LenV=     754769661
 LASXX=        60334 LTotXX=       60334 LenRXX=       60334
 LTotAB=       65632 MaxLAS=      151360 LenRXY=      151360
 NonZer=      159520 LenScr=      785920 LnRSAI=           0
 LnScr1=           0 LExtra=           0 Total=       997614
 MaxDsk=          -1 SrtSym=           F ITran=            4
 DoSDTr:  NPSUse=  4
 JobTyp=0 Pass  1:  I=   1 to   4.
 (rs|ai) integrals will be sorted in core.
 Complete sort for first half transformation.
 First half transformation complete.
 Complete sort for second half transformation.
 Second half transformation complete.
 Spin components of T(2) and E(2):
     alpha-alpha T2 =       0.7908991453D-02 E2=     -0.2816868248D-01
     alpha-beta  T2 =       0.4481079432D-01 E2=     -0.1648800558D+00
     beta-beta   T2 =       0.7908991453D-02 E2=     -0.2816868248D-01
 ANorm=    0.1029868330D+01
 E2 =    -0.2212174208D+00 EUMP2 =    -0.76251276825596D+02
 Leave Link  804 at Wed Feb  8 14:51:00 2023, MaxMem=   754974720 cpu:               0.3 elap:               0.1
 (Enter /opt/cluster/programs/g16-c.01/g16/l913.exe)
 CIDS:  MDV=   754974720.
 Frozen-core window:  NFC=   1 NFV=   0.
 IFCWin=0 IBDFC=1 NFBD=     0     0 NFCmp=     0     0 NFFFC=     0     0
 Using DD3R+UMP44R for 1st iteration.
 Using DD4RQ for 2nd and later iterations.
 Keep R2 and R3 ints in memory in symmetry-blocked form, NReq=1234037.
 FoFCou: FMM=F IPFlag=           0 FMFlag=           0 FMFlg1=           0
         NFxFlg=           0 DoJE=F BraDBF=F KetDBF=F FulRan=T
         wScrn=  0.000000 ICntrl=       600 IOpCl=  0 I1Cent=           0 NGrid=           0
         NMat0=    1 NMatS0=    861 NMatT0=    0 NMatD0=    1 NMtDS0=    0 NMtDT0=    0
 Petite list used in FoFCou.
 CIDS: In Core Option IDoMem=           1.
 CCSD(T)
 =======
 Iterations=  50 Convergence= 0.100D-06
 Produce multiple copies of IABC intergrals
 Iteration Nr.   1
 **********************
 DD1Dir will call FoFMem   1 times, MxPair=        20
 NAB=    10 NAA=     0 NBB=     0.
 MP4(R+Q)=  0.25172193D-02
 Maximum subspace dimension=  5
 A-vector RMS=  5.6036213D-03 Max=  1.7892190D-02 conv= 1.00D-05.
 RLE energy=       -0.2229889213
 E3=       -0.43746713D-02        EUMP3=      -0.76255651497D+02
 E4(DQ)=   -0.16368756D-02        UMP4(DQ)=   -0.76257288372D+02
 E4(SDQ)=  -0.34459605D-02        UMP4(SDQ)=  -0.76259097457D+02
 VARIATIONAL ENERGIES WITH THE FIRST-ORDER WAVEFUNCTION:
 DE(Corr)= -0.22297489     E(Corr)=     -76.253034298    
 NORM(A)=   0.10308519D+01
 Iteration Nr.   2
 **********************
 DD1Dir will call FoFMem   1 times, MxPair=        20
 NAB=    10 NAA=     0 NBB=     0.
 A-vector RMS=  6.8212958D-04 Max=  3.2122121D-03 conv= 1.00D-05.
 RLE energy=       -0.2283626711
 DE(Corr)= -0.22773407     E(CORR)=     -76.257793472     Delta=-4.76D-03
 NORM(A)=   0.10331891D+01
 Iteration Nr.   3
 **********************
 DD1Dir will call FoFMem   1 times, MxPair=        20
 NAB=    10 NAA=     0 NBB=     0.
 A-vector RMS=  7.9556495D-04 Max=  3.0571972D-03 conv= 1.00D-05.
 RLE energy=       -0.2287674859
 DE(Corr)= -0.22831326     E(CORR)=     -76.258372661     Delta=-5.79D-04
 NORM(A)=   0.10337586D+01
 Iteration Nr.   4
 **********************
 DD1Dir will call FoFMem   1 times, MxPair=        20
 NAB=    10 NAA=     0 NBB=     0.
 A-vector RMS=  9.9296033D-05 Max=  3.9452646D-04 conv= 1.00D-05.
 RLE energy=       -0.2288071468
 DE(Corr)= -0.22877471     E(CORR)=     -76.258834110     Delta=-4.61D-04
 NORM(A)=   0.10338826D+01
 Iteration Nr.   5
 **********************
 DD1Dir will call FoFMem   1 times, MxPair=        20
 NAB=    10 NAA=     0 NBB=     0.
 A-vector RMS=  4.5571357D-05 Max=  1.6473335D-04 conv= 1.00D-05.
 RLE energy=       -0.2288137736
 DE(Corr)= -0.22880958     E(CORR)=     -76.258868989     Delta=-3.49D-05
 NORM(A)=   0.10339038D+01
 Iteration Nr.   6
 **********************
 DD1Dir will call FoFMem   1 times, MxPair=        20
 NAB=    10 NAA=     0 NBB=     0.
 A-vector RMS=  1.2752455D-05 Max=  3.7947238D-05 conv= 1.00D-05.
 RLE energy=       -0.2288105696
 DE(Corr)= -0.22881216     E(CORR)=     -76.258871561     Delta=-2.57D-06
 NORM(A)=   0.10339060D+01
 Iteration Nr.   7
 **********************
 DD1Dir will call FoFMem   1 times, MxPair=        20
 NAB=    10 NAA=     0 NBB=     0.
 A-vector RMS=  6.1505702D-06 Max=  2.5228352D-05 conv= 1.00D-05.
 RLE energy=       -0.2288113215
 DE(Corr)= -0.22881221     E(CORR)=     -76.258871613     Delta=-5.28D-08
 NORM(A)=   0.10339068D+01
 Iteration Nr.   8
 **********************
 DD1Dir will call FoFMem   1 times, MxPair=        20
 NAB=    10 NAA=     0 NBB=     0.
 A-vector RMS=  2.1330145D-06 Max=  8.1799587D-06 conv= 1.00D-05.
 RLE energy=       -0.2288116033
 DE(Corr)= -0.22881176     E(CORR)=     -76.258871160     Delta= 4.53D-07
 NORM(A)=   0.10339073D+01
 Iteration Nr.   9
 **********************
 DD1Dir will call FoFMem   1 times, MxPair=        20
 NAB=    10 NAA=     0 NBB=     0.
 A-vector RMS=  7.8906005D-07 Max=  3.0233812D-06 conv= 1.00D-05.
 RLE energy=       -0.2288119799
 DE(Corr)= -0.22881198     E(CORR)=     -76.258871384     Delta=-2.24D-07
 NORM(A)=   0.10339075D+01
 Iteration Nr.  10
 **********************
 DD1Dir will call FoFMem   1 times, MxPair=        20
 NAB=    10 NAA=     0 NBB=     0.
 A-vector RMS=  3.1685486D-07 Max=  1.0868723D-06 conv= 1.00D-05.
 RLE energy=       -0.2288120212
 DE(Corr)= -0.22881198     E(CORR)=     -76.258871390     Delta=-5.54D-09
 NORM(A)=   0.10339076D+01
 CI/CC converged in   10 iterations to DelEn=-5.54D-09 Conv= 1.00D-07 ErrA1= 3.17D-07 Conv= 1.00D-05
 Wavefunction amplitudes converged. E(Corr)=     -76.258871390    
 Largest amplitude= 3.44D-02
 IPart=  2 IA=    3   10.95% done.
 IPart=  4 IA=    5   21.27% done.
 IPart=  1 IA=    7   30.95% done.
 IPart=  4 IA=    9   40.00% done.
 IPart=  3 IA=   12   52.38% done.
 IPart=  2 IA=   15   63.33% done.
 IPart=  3 IA=   18   72.86% done.
 IPart=  4 IA=   21   80.95% done.
 IPart=  3 IA=   26   91.27% done.
 Time for triples=        0.41 seconds.
 T4(CCSD)= -0.57999825D-02
 T5(CCSD)=  0.43216583D-03
 CCSD(T)= -0.76264239206D+02
 Discarding MO integrals.
 Leave Link  913 at Wed Feb  8 14:51:00 2023, MaxMem=   754974720 cpu:               1.3 elap:               0.4
 (Enter /opt/cluster/programs/g16-c.01/g16/l601.exe)
 Copying SCF densities to generalized density rwf, IOpCl= 0 IROHF=0.

 **********************************************************************

            Population analysis using the SCF Density.

 **********************************************************************

 Orbital symmetries:
       Occupied  (A') (A') (A') (A') (A")
       Virtual   (A') (A') (A') (A") (A') (A') (A') (A') (A") (A')
                 (A") (A') (A') (A') (A') (A') (A") (A') (A") (A')
                 (A') (A") (A') (A') (A") (A") (A') (A') (A') (A')
                 (A') (A") (A') (A") (A') (A')
 The electronic state is 1-A'.
 Alpha  occ. eigenvalues --  -20.57185  -1.33228  -0.73400  -0.54651  -0.50135
 Alpha virt. eigenvalues --    0.03597   0.05620   0.17675   0.19626   0.21361
 Alpha virt. eigenvalues --    0.22608   0.29528   0.30623   0.37391   0.43778
 Alpha virt. eigenvalues --    0.45864   0.51540   0.63857   0.65499   0.84609
 Alpha virt. eigenvalues --    0.86470   1.07899   1.08318   1.14732   1.42596
 Alpha virt. eigenvalues --    1.46323   1.49388   1.56872   1.96574   2.02193
 Alpha virt. eigenvalues --    2.08084   2.38909   2.42413   2.57650   2.75021
 Alpha virt. eigenvalues --    2.85633   3.65355   3.66059   3.70488   4.13039
 Alpha virt. eigenvalues --    4.21513
          Condensed to atoms (all electrons):
               1          2          3
     1  O    7.745817   0.324909   0.342103
     2  H    0.324909   0.480827  -0.042040
     3  H    0.342103  -0.042040   0.523411
 Mulliken charges:
               1
     1  O   -0.412829
     2  H    0.236303
     3  H    0.176526
 Sum of Mulliken charges =   0.00000
 Mulliken charges with hydrogens summed into heavy atoms:
               1
     1  O    0.000000
 Electronic spatial extent (au):  <R**2>=             19.9285
 Charge=              0.0000 electrons
 Dipole moment (field-independent basis, Debye):
    X=             -0.0092    Y=             -1.6921    Z=             -0.0000  Tot=              1.6922
 Quadrupole moment (field-independent basis, Debye-Ang):
   XX=             -3.4139   YY=             -6.8197   ZZ=             -7.6954
   XY=             -0.2262   XZ=             -0.0000   YZ=              0.0000
 Traceless Quadrupole moment (field-independent basis, Debye-Ang):
   XX=              2.5624   YY=             -0.8434   ZZ=             -1.7191
   XY=             -0.2262   XZ=             -0.0000   YZ=              0.0000
 Octapole moment (field-independent basis, Debye-Ang**2):
  XXX=             -0.0409  YYY=             -0.8598  ZZZ=             -0.0000  XYY=              0.1191
  XXY=             -1.4265  XXZ=              0.0000  XZZ=             -0.0299  YZZ=             -0.2315
  YYZ=             -0.0000  XYZ=              0.0000
 Hexadecapole moment (field-independent basis, Debye-Ang**3):
 XXXX=             -5.4218 YYYY=             -7.5198 ZZZZ=             -7.0661 XXXY=             -0.0911
 XXXZ=             -0.0000 YYYX=              0.0164 YYYZ=              0.0000 ZZZX=              0.0000
 ZZZY=             -0.0000 XXYY=             -2.1490 XXZZ=             -2.6384 YYZZ=             -2.4563
 XXYZ=              0.0000 YYXZ=              0.0000 ZZXY=              0.0394
 N-N= 8.916807405747D+00 E-N=-1.983256302299D+02  KE= 7.580386531772D+01
 Symmetry A'   KE= 7.138093677984D+01
 Symmetry A"   KE= 4.422928537873D+00
 Leave Link  601 at Wed Feb  8 14:51:00 2023, MaxMem=   754974720 cpu:               0.2 elap:               0.0
 (Enter /opt/cluster/programs/g16-c.01/g16/l9999.exe)
 Unable to Open any file for archive entry.
 1\1\GINC-NODE60\SP\RCCSD(T)-FC\Aug-CC-pVDZ\H2O1\BOITTIER\08-Feb-2023\0
 \\#P CCSD(T)/aug-cc-pVDZ scf(maxcycle=200)\\Gaussian input\\0,1\O,0,0.
 ,0.11751,0.\H,0,0.7973622306,-0.5007896629,0.\H,0,-0.9025375702,-0.206
 6919964,0.\\Version=ES64L-G16RevC.01\State=1-A'\HF=-76.0300594\MP2=-76
 .2512768\MP3=-76.2556515\MP4D=-76.2598056\MP4DQ=-76.2572884\MP4SDQ=-76
 .2590975\CCSD=-76.2588714\CCSD(T)=-76.2642392\RMSD=7.530e-09\PG=CS [SG
 (H2O1)]\\@
 The archive entry for this job was punched.


 THE MOLECULE ALSO HAS A BODY.  WHEN THIS BODY IS HIT, THE MOLECULE
 FEELS HURT ALL OVER -- A. KITAIGORODSKI
 Job cpu time:       0 days  0 hours  0 minutes  5.1 seconds.
 Elapsed time:       0 days  0 hours  0 minutes  1.4 seconds.
 File lengths (MBytes):  RWF=     15 Int=      0 D2E=      0 Chk=      1 Scr=      1
 Normal termination of Gaussian 16 at Wed Feb  8 14:51:00 2023.
