 Entering Gaussian System, Link 0=/opt/cluster/programs/g16-c.01/g16/g16
 Input=/scratch/boittier/jobs/tmp.7262424/gaussian_179_water_ccsdt_adz.com
 Output=/scratch/boittier/jobs/tmp.7262424/gaussian_179_water_ccsdt_adz.out
 Initial command:
 /opt/cluster/programs/g16-c.01/g16/l1.exe "/scratch/boittier/jobs/tmp.7262424/Gau-160776.inp" -scrdir="/scratch/boittier/jobs/tmp.7262424/"
 Entering Link 1 = /opt/cluster/programs/g16-c.01/g16/l1.exe PID=    160777.
  
 Copyright (c) 1988-2019, Gaussian, Inc.  All Rights Reserved.
  
 This is part of the Gaussian(R) 16 program.  It is based on
 the Gaussian(R) 09 system (copyright 2009, Gaussian, Inc.),
 the Gaussian(R) 03 system (copyright 2003, Gaussian, Inc.),
 the Gaussian(R) 98 system (copyright 1998, Gaussian, Inc.),
 the Gaussian(R) 94 system (copyright 1995, Gaussian, Inc.),
 the Gaussian 92(TM) system (copyright 1992, Gaussian, Inc.),
 the Gaussian 90(TM) system (copyright 1990, Gaussian, Inc.),
 the Gaussian 88(TM) system (copyright 1988, Gaussian, Inc.),
 the Gaussian 86(TM) system (copyright 1986, Carnegie Mellon
 University), and the Gaussian 82(TM) system (copyright 1983,
 Carnegie Mellon University). Gaussian is a federally registered
 trademark of Gaussian, Inc.
  
 This software contains proprietary and confidential information,
 including trade secrets, belonging to Gaussian, Inc.
  
 This software is provided under written license and may be
 used, copied, transmitted, or stored only in accord with that
 written license.
  
 The following legend is applicable only to US Government
 contracts under FAR:
  
                    RESTRICTED RIGHTS LEGEND
  
 Use, reproduction and disclosure by the US Government is
 subject to restrictions as set forth in subparagraphs (a)
 and (c) of the Commercial Computer Software - Restricted
 Rights clause in FAR 52.227-19.
  
 Gaussian, Inc.
 340 Quinnipiac St., Bldg. 40, Wallingford CT 06492
  
  
 ---------------------------------------------------------------
 Warning -- This program may not be used in any manner that
 competes with the business of Gaussian, Inc. or will provide
 assistance to any competitor of Gaussian, Inc.  The licensee
 of this program is prohibited from giving any competitor of
 Gaussian, Inc. access to this program.  By using this program,
 the user acknowledges that Gaussian, Inc. is engaged in the
 business of creating and licensing software in the field of
 computational chemistry and represents and warrants to the
 licensee that it is not a competitor of Gaussian, Inc. and that
 it will not use this program in any manner prohibited above.
 ---------------------------------------------------------------
  

 Cite this work as:
 Gaussian 16, Revision C.01,
 M. J. Frisch, G. W. Trucks, H. B. Schlegel, G. E. Scuseria, 
 M. A. Robb, J. R. Cheeseman, G. Scalmani, V. Barone, 
 G. A. Petersson, H. Nakatsuji, X. Li, M. Caricato, A. V. Marenich, 
 J. Bloino, B. G. Janesko, R. Gomperts, B. Mennucci, H. P. Hratchian, 
 J. V. Ortiz, A. F. Izmaylov, J. L. Sonnenberg, D. Williams-Young, 
 F. Ding, F. Lipparini, F. Egidi, J. Goings, B. Peng, A. Petrone, 
 T. Henderson, D. Ranasinghe, V. G. Zakrzewski, J. Gao, N. Rega, 
 G. Zheng, W. Liang, M. Hada, M. Ehara, K. Toyota, R. Fukuda, 
 J. Hasegawa, M. Ishida, T. Nakajima, Y. Honda, O. Kitao, H. Nakai, 
 T. Vreven, K. Throssell, J. A. Montgomery, Jr., J. E. Peralta, 
 F. Ogliaro, M. J. Bearpark, J. J. Heyd, E. N. Brothers, K. N. Kudin, 
 V. N. Staroverov, T. A. Keith, R. Kobayashi, J. Normand, 
 K. Raghavachari, A. P. Rendell, J. C. Burant, S. S. Iyengar, 
 J. Tomasi, M. Cossi, J. M. Millam, M. Klene, C. Adamo, R. Cammi, 
 J. W. Ochterski, R. L. Martin, K. Morokuma, O. Farkas, 
 J. B. Foresman, and D. J. Fox, Gaussian, Inc., Wallingford CT, 2019.
 
 ******************************************
 Gaussian 16:  ES64L-G16RevC.01  3-Jul-2019
                 8-Feb-2023 
 ******************************************
 %nproc=4
 Will use up to    4 processors via shared memory.
 %mem=5760MB
 %chk=gaussian_179_water_ccsdt_adz.chk
 ----------------------------------------
 #P CCSD(T)/aug-cc-pVDZ scf(maxcycle=200)
 ----------------------------------------
 1/38=1,172=1/1;
 2/12=2,17=6,18=5,40=1/2;
 3/5=16,7=10,11=9,25=1,30=1/1,2,3;
 4//1;
 5/5=2,7=200,38=5/2;
 8/6=4,9=120000,10=1/1,4;
 9/5=7,14=2/13;
 6/7=2,8=2,9=2,10=2/1;
 99/5=1,9=1/99;
 Leave Link    1 at Wed Feb  8 14:51:20 2023, MaxMem=   754974720 cpu:               0.2 elap:               0.1
 (Enter /opt/cluster/programs/g16-c.01/g16/l101.exe)
 --------------
 Gaussian input
 --------------
 Symbolic Z-matrix:
 Charge =  0 Multiplicity = 1
 O                     0.        0.11751   0. 
 H                     0.79736  -0.50079   0. 
 H                    -0.94959  -0.2236    0. 
 
 ITRead=  0  0  0
 MicOpt= -1 -1 -1
 NAtoms=      3 NQM=        3 NQMF=       0 NMMI=      0 NMMIF=      0
                NMic=       0 NMicF=      0.
                    Isotopes and Nuclear Properties:
 (Nuclear quadrupole moments (NQMom) in fm**2, nuclear magnetic moments (NMagM)
  in nuclear magnetons)

  Atom         1           2           3
 IAtWgt=          16           1           1
 AtmWgt=  15.9949146   1.0078250   1.0078250
 NucSpn=           0           1           1
 AtZEff=  -0.0000000  -0.0000000  -0.0000000
 NQMom=    0.0000000   0.0000000   0.0000000
 NMagM=    0.0000000   2.7928460   2.7928460
 AtZNuc=   8.0000000   1.0000000   1.0000000
 Leave Link  101 at Wed Feb  8 14:51:20 2023, MaxMem=   754974720 cpu:               0.3 elap:               0.2
 (Enter /opt/cluster/programs/g16-c.01/g16/l202.exe)
                          Input orientation:                          
 ---------------------------------------------------------------------
 Center     Atomic      Atomic             Coordinates (Angstroms)
 Number     Number       Type             X           Y           Z
 ---------------------------------------------------------------------
      1          8           0        0.000000    0.117510    0.000000
      2          1           0        0.797362   -0.500790    0.000000
      3          1           0       -0.949594   -0.223595    0.000000
 ---------------------------------------------------------------------
                    Distance matrix (angstroms):
                    1          2          3
     1  O    0.000000
     2  H    1.009000   0.000000
     3  H    1.009000   1.768811   0.000000
 Stoichiometry    H2O
 Framework group  C2V[C2(O),SGV(H2)]
 Deg. of freedom     2
 Full point group                 C2V     NOp   4
 Largest Abelian subgroup         C2V     NOp   4
 Largest concise Abelian subgroup C2      NOp   2
                         Standard orientation:                         
 ---------------------------------------------------------------------
 Center     Atomic      Atomic             Coordinates (Angstroms)
 Number     Number       Type             X           Y           Z
 ---------------------------------------------------------------------
      1          8           0        0.000000    0.000000    0.097141
      2          1           0       -0.000000    0.884405   -0.388563
      3          1           0       -0.000000   -0.884405   -0.388563
 ---------------------------------------------------------------------
 Rotational constants (GHZ):        1196.7537686         320.5525514         252.8312635
 Leave Link  202 at Wed Feb  8 14:51:20 2023, MaxMem=   754974720 cpu:               0.1 elap:               0.1
 (Enter /opt/cluster/programs/g16-c.01/g16/l301.exe)
 Standard basis: Aug-CC-pVDZ (5D, 7F)
 Ernie: Thresh=  0.10000D-02 Tol=  0.10000D-05 Strict=F.
 Ernie:  2 primitive shells out of 39 were deleted.
 There are    20 symmetry adapted cartesian basis functions of A1  symmetry.
 There are     4 symmetry adapted cartesian basis functions of A2  symmetry.
 There are     7 symmetry adapted cartesian basis functions of B1  symmetry.
 There are    12 symmetry adapted cartesian basis functions of B2  symmetry.
 There are    18 symmetry adapted basis functions of A1  symmetry.
 There are     4 symmetry adapted basis functions of A2  symmetry.
 There are     7 symmetry adapted basis functions of B1  symmetry.
 There are    12 symmetry adapted basis functions of B2  symmetry.
    41 basis functions,    65 primitive gaussians,    43 cartesian basis functions
     5 alpha electrons        5 beta electrons
       nuclear repulsion energy         8.6904847131 Hartrees.
 IExCor=    0 DFT=F Ex=HF Corr=None ExCW=0 ScaHFX=  1.000000
 ScaDFX=  1.000000  1.000000  1.000000  1.000000 ScalE2=  1.000000  1.000000
 IRadAn=      5 IRanWt=     -1 IRanGd=            0 ICorTp=0 IEmpDi=  4
 NAtoms=    3 NActive=    3 NUniq=    2 SFac= 2.25D+00 NAtFMM=   60 NAOKFM=F Big=F
 Integral buffers will be    131072 words long.
 Raffenetti 1 integral format.
 Two-electron integral symmetry is turned on.
 Leave Link  301 at Wed Feb  8 14:51:20 2023, MaxMem=   754974720 cpu:               0.1 elap:               0.0
 (Enter /opt/cluster/programs/g16-c.01/g16/l302.exe)
 NPDir=0 NMtPBC=     1 NCelOv=     1 NCel=       1 NClECP=     1 NCelD=      1
         NCelK=      1 NCelE2=     1 NClLst=     1 CellRange=     0.0.
 One-electron integrals computed using PRISM.
 One-electron integral symmetry used in STVInt
 NBasis=    41 RedAO= T EigKep=  3.21D-03  NBF=    18     4     7    12
 NBsUse=    41 1.00D-06 EigRej= -1.00D+00 NBFU=    18     4     7    12
 Leave Link  302 at Wed Feb  8 14:51:21 2023, MaxMem=   754974720 cpu:               1.1 elap:               0.6
 (Enter /opt/cluster/programs/g16-c.01/g16/l303.exe)
 DipDrv:  MaxL=1.
 Leave Link  303 at Wed Feb  8 14:51:21 2023, MaxMem=   754974720 cpu:               0.6 elap:               0.2
 (Enter /opt/cluster/programs/g16-c.01/g16/l401.exe)
 ExpMin= 2.97D-02 ExpMax= 1.17D+04 ExpMxC= 4.01D+02 IAcc=3 IRadAn=         5 AccDes= 0.00D+00
 Harris functional with IExCor=  205 and IRadAn=       5 diagonalized for initial guess.
 HarFok:  IExCor=  205 AccDes= 0.00D+00 IRadAn=         5 IDoV= 1 UseB2=F ITyADJ=14
 ICtDFT=  3500011 ScaDFX=  1.000000  1.000000  1.000000  1.000000
 FoFCou: FMM=F IPFlag=           0 FMFlag=      100000 FMFlg1=           0
         NFxFlg=           0 DoJE=T BraDBF=F KetDBF=T FulRan=T
         wScrn=  0.000000 ICntrl=       500 IOpCl=  0 I1Cent=   200000004 NGrid=           0
         NMat0=    1 NMatS0=      1 NMatT0=    0 NMatD0=    1 NMtDS0=    0 NMtDT0=    0
 Petite list used in FoFCou.
 Harris En= -76.1149934691542    
 JPrj=0 DoOrth=F DoCkMO=F.
 Initial guess orbital symmetries:
       Occupied  (A1) (A1) (B2) (A1) (B1)
       Virtual   (A1) (B2) (A1) (B1) (A1) (B2) (B2) (A1) (A2) (A1)
                 (B1) (B2) (A1) (B2) (B2) (A1) (B1) (A1) (A2) (B1)
                 (A1) (B2) (A1) (B2) (B1) (A2) (B2) (A1) (A1) (B2)
                 (A1) (B1) (A1) (A2) (B2) (A1)
 The electronic state of the initial guess is 1-A1.
 Leave Link  401 at Wed Feb  8 14:51:21 2023, MaxMem=   754974720 cpu:               0.4 elap:               0.1
 (Enter /opt/cluster/programs/g16-c.01/g16/l502.exe)
 Keep R1 ints in memory in symmetry-blocked form, NReq=1211474.
 FoFCou: FMM=F IPFlag=           0 FMFlag=           0 FMFlg1=           0
         NFxFlg=           0 DoJE=F BraDBF=F KetDBF=F FulRan=T
         wScrn=  0.000000 ICntrl=       600 IOpCl=  0 I1Cent=           0 NGrid=           0
         NMat0=    1 NMatS0=    861 NMatT0=    0 NMatD0=    1 NMtDS0=    0 NMtDT0=    0
 Petite list used in FoFCou.
 Closed shell SCF:
 Using DIIS extrapolation, IDIIS=  1040.
 NGot=   754974720 LenX=   754868251 LenY=   754865961
 Requested convergence on RMS density matrix=1.00D-08 within 200 cycles.
 Requested convergence on MAX density matrix=1.00D-06.
 Requested convergence on             energy=1.00D-06.
 No special actions if energy rises.

 Cycle   1  Pass 1  IDiag  1:
 E= -75.9513898527244    
 DIIS: error= 5.01D-02 at cycle   1 NSaved=   1.
 NSaved= 1 IEnMin= 1 EnMin= -75.9513898527244     IErMin= 1 ErrMin= 5.01D-02
 ErrMax= 5.01D-02  0.00D+00 EMaxC= 1.00D-01 BMatC= 1.13D-01 BMatP= 1.13D-01
 IDIUse=3 WtCom= 4.99D-01 WtEn= 5.01D-01
 Coeff-Com:  0.100D+01
 Coeff-En:   0.100D+01
 Coeff:      0.100D+01
 Gap=     0.457 Goal=   None    Shift=    0.000
 GapD=    0.457 DampG=2.000 DampE=0.500 DampFc=1.0000 IDamp=-1.
 RMSDP=6.14D-03 MaxDP=1.16D-01              OVMax= 1.21D-01

 Cycle   2  Pass 1  IDiag  1:
 E= -75.9921352576241     Delta-E=       -0.040745404900 Rises=F Damp=F
 DIIS: error= 4.12D-02 at cycle   2 NSaved=   2.
 NSaved= 2 IEnMin= 2 EnMin= -75.9921352576241     IErMin= 2 ErrMin= 4.12D-02
 ErrMax= 4.12D-02  0.00D+00 EMaxC= 1.00D-01 BMatC= 4.67D-02 BMatP= 1.13D-01
 IDIUse=3 WtCom= 5.88D-01 WtEn= 4.12D-01
 Coeff-Com:  0.381D+00 0.619D+00
 Coeff-En:   0.240D+00 0.760D+00
 Coeff:      0.323D+00 0.677D+00
 Gap=     0.550 Goal=   None    Shift=    0.000
 RMSDP=2.94D-03 MaxDP=5.49D-02 DE=-4.07D-02 OVMax= 6.00D-02

 Cycle   3  Pass 1  IDiag  1:
 E= -76.0248053334751     Delta-E=       -0.032670075851 Rises=F Damp=F
 DIIS: error= 4.76D-03 at cycle   3 NSaved=   3.
 NSaved= 3 IEnMin= 3 EnMin= -76.0248053334751     IErMin= 3 ErrMin= 4.76D-03
 ErrMax= 4.76D-03  0.00D+00 EMaxC= 1.00D-01 BMatC= 1.11D-03 BMatP= 4.67D-02
 IDIUse=3 WtCom= 9.52D-01 WtEn= 4.76D-02
 Coeff-Com: -0.377D-01 0.899D-01 0.948D+00
 Coeff-En:   0.000D+00 0.000D+00 0.100D+01
 Coeff:     -0.359D-01 0.856D-01 0.950D+00
 Gap=     0.533 Goal=   None    Shift=    0.000
 RMSDP=4.69D-04 MaxDP=8.14D-03 DE=-3.27D-02 OVMax= 9.39D-03

 Cycle   4  Pass 1  IDiag  1:
 E= -76.0256779356087     Delta-E=       -0.000872602134 Rises=F Damp=F
 DIIS: error= 7.13D-04 at cycle   4 NSaved=   4.
 NSaved= 4 IEnMin= 4 EnMin= -76.0256779356087     IErMin= 4 ErrMin= 7.13D-04
 ErrMax= 7.13D-04  0.00D+00 EMaxC= 1.00D-01 BMatC= 9.41D-06 BMatP= 1.11D-03
 IDIUse=3 WtCom= 9.93D-01 WtEn= 7.13D-03
 Coeff-Com:  0.798D-02-0.424D-01-0.319D+00 0.135D+01
 Coeff-En:   0.000D+00 0.000D+00 0.000D+00 0.100D+01
 Coeff:      0.792D-02-0.421D-01-0.317D+00 0.135D+01
 Gap=     0.534 Goal=   None    Shift=    0.000
 RMSDP=1.32D-04 MaxDP=1.33D-03 DE=-8.73D-04 OVMax= 2.78D-03

 Cycle   5  Pass 1  IDiag  1:
 E= -76.0257026662177     Delta-E=       -0.000024730609 Rises=F Damp=F
 DIIS: error= 2.06D-04 at cycle   5 NSaved=   5.
 NSaved= 5 IEnMin= 5 EnMin= -76.0257026662177     IErMin= 5 ErrMin= 2.06D-04
 ErrMax= 2.06D-04  0.00D+00 EMaxC= 1.00D-01 BMatC= 5.07D-07 BMatP= 9.41D-06
 IDIUse=3 WtCom= 9.98D-01 WtEn= 2.06D-03
 Coeff-Com:  0.587D-03 0.166D-02 0.704D-02-0.264D+00 0.125D+01
 Coeff-En:   0.000D+00 0.000D+00 0.000D+00 0.000D+00 0.100D+01
 Coeff:      0.585D-03 0.166D-02 0.703D-02-0.263D+00 0.125D+01
 Gap=     0.534 Goal=   None    Shift=    0.000
 RMSDP=3.72D-05 MaxDP=4.70D-04 DE=-2.47D-05 OVMax= 8.81D-04

 Cycle   6  Pass 1  IDiag  1:
 E= -76.0257043950063     Delta-E=       -0.000001728789 Rises=F Damp=F
 DIIS: error= 4.30D-05 at cycle   6 NSaved=   6.
 NSaved= 6 IEnMin= 6 EnMin= -76.0257043950063     IErMin= 6 ErrMin= 4.30D-05
 ErrMax= 4.30D-05  0.00D+00 EMaxC= 1.00D-01 BMatC= 2.30D-08 BMatP= 5.07D-07
 IDIUse=1 WtCom= 1.00D+00 WtEn= 0.00D+00
 Coeff-Com: -0.480D-03 0.163D-02 0.142D-01-0.164D-01-0.274D+00 0.127D+01
 Coeff:     -0.480D-03 0.163D-02 0.142D-01-0.164D-01-0.274D+00 0.127D+01
 Gap=     0.534 Goal=   None    Shift=    0.000
 RMSDP=7.38D-06 MaxDP=1.21D-04 DE=-1.73D-06 OVMax= 2.15D-04

 Cycle   7  Pass 1  IDiag  1:
 E= -76.0257044758465     Delta-E=       -0.000000080840 Rises=F Damp=F
 DIIS: error= 9.31D-06 at cycle   7 NSaved=   7.
 NSaved= 7 IEnMin= 7 EnMin= -76.0257044758465     IErMin= 7 ErrMin= 9.31D-06
 ErrMax= 9.31D-06  0.00D+00 EMaxC= 1.00D-01 BMatC= 1.18D-09 BMatP= 2.30D-08
 IDIUse=1 WtCom= 1.00D+00 WtEn= 0.00D+00
 Coeff-Com:  0.191D-03-0.830D-03-0.707D-02 0.222D-01 0.634D-01-0.565D+00
 Coeff-Com:  0.149D+01
 Coeff:      0.191D-03-0.830D-03-0.707D-02 0.222D-01 0.634D-01-0.565D+00
 Coeff:      0.149D+01
 Gap=     0.535 Goal=   None    Shift=    0.000
 RMSDP=1.53D-06 MaxDP=3.23D-05 DE=-8.08D-08 OVMax= 4.76D-05

 Cycle   8  Pass 1  IDiag  1:
 E= -76.0257044795396     Delta-E=       -0.000000003693 Rises=F Damp=F
 DIIS: error= 1.41D-06 at cycle   8 NSaved=   8.
 NSaved= 8 IEnMin= 8 EnMin= -76.0257044795396     IErMin= 8 ErrMin= 1.41D-06
 ErrMax= 1.41D-06  0.00D+00 EMaxC= 1.00D-01 BMatC= 3.14D-11 BMatP= 1.18D-09
 IDIUse=1 WtCom= 1.00D+00 WtEn= 0.00D+00
 Coeff-Com: -0.385D-04 0.183D-03 0.165D-02-0.676D-02-0.721D-02 0.126D+00
 Coeff-Com: -0.458D+00 0.135D+01
 Coeff:     -0.385D-04 0.183D-03 0.165D-02-0.676D-02-0.721D-02 0.126D+00
 Coeff:     -0.458D+00 0.135D+01
 Gap=     0.535 Goal=   None    Shift=    0.000
 RMSDP=2.78D-07 MaxDP=3.66D-06 DE=-3.69D-09 OVMax= 5.27D-06

 Cycle   9  Pass 1  IDiag  1:
 E= -76.0257044796118     Delta-E=       -0.000000000072 Rises=F Damp=F
 DIIS: error= 1.58D-07 at cycle   9 NSaved=   9.
 NSaved= 9 IEnMin= 9 EnMin= -76.0257044796118     IErMin= 9 ErrMin= 1.58D-07
 ErrMax= 1.58D-07  0.00D+00 EMaxC= 1.00D-01 BMatC= 3.58D-13 BMatP= 3.14D-11
 IDIUse=1 WtCom= 1.00D+00 WtEn= 0.00D+00
 Coeff-Com:  0.465D-05-0.231D-04-0.227D-03 0.110D-02 0.555D-03-0.185D-01
 Coeff-Com:  0.806D-01-0.317D+00 0.125D+01
 Coeff:      0.465D-05-0.231D-04-0.227D-03 0.110D-02 0.555D-03-0.185D-01
 Coeff:      0.806D-01-0.317D+00 0.125D+01
 Gap=     0.535 Goal=   None    Shift=    0.000
 RMSDP=2.69D-08 MaxDP=2.90D-07 DE=-7.23D-11 OVMax= 4.70D-07

 Cycle  10  Pass 1  IDiag  1:
 E= -76.0257044796127     Delta-E=       -0.000000000001 Rises=F Damp=F
 DIIS: error= 3.09D-08 at cycle  10 NSaved=  10.
 NSaved=10 IEnMin=10 EnMin= -76.0257044796127     IErMin=10 ErrMin= 3.09D-08
 ErrMax= 3.09D-08  0.00D+00 EMaxC= 1.00D-01 BMatC= 2.13D-14 BMatP= 3.58D-13
 IDIUse=1 WtCom= 1.00D+00 WtEn= 0.00D+00
 Coeff-Com: -0.330D-06 0.195D-05 0.272D-04-0.202D-03 0.184D-03 0.221D-02
 Coeff-Com: -0.135D-01 0.677D-01-0.449D+00 0.139D+01
 Coeff:     -0.330D-06 0.195D-05 0.272D-04-0.202D-03 0.184D-03 0.221D-02
 Coeff:     -0.135D-01 0.677D-01-0.449D+00 0.139D+01
 Gap=     0.535 Goal=   None    Shift=    0.000
 RMSDP=7.11D-09 MaxDP=5.93D-08 DE=-8.81D-13 OVMax= 1.60D-07

 SCF Done:  E(RHF) =  -76.0257044796     A.U. after   10 cycles
            NFock= 10  Conv=0.71D-08     -V/T= 2.0041
 KE= 7.571421687444D+01 PE=-1.978335356885D+02 EE= 3.740312962136D+01
 Leave Link  502 at Wed Feb  8 14:51:21 2023, MaxMem=   754974720 cpu:               0.4 elap:               0.1
 (Enter /opt/cluster/programs/g16-c.01/g16/l801.exe)
 Windowed orbitals will be sorted by symmetry type.
 ExpMin= 2.97D-02 ExpMax= 1.17D+04 ExpMxC= 4.01D+02 IAcc=3 IRadAn=         5 AccDes= 0.00D+00
 HarFok:  IExCor=  205 AccDes= 0.00D+00 IRadAn=         5 IDoV=-2 UseB2=F ITyADJ=14
 ICtDFT= 12500011 ScaDFX=  1.000000  1.000000  1.000000  1.000000
 Largest valence mixing into a core orbital is  6.20D-05
 Largest core mixing into a valence orbital is  1.88D-05
 Range of M.O.s used for correlation:     2    41
 NBasis=    41 NAE=     5 NBE=     5 NFC=     1 NFV=     0
 NROrb=     40 NOA=     4 NOB=     4 NVA=    36 NVB=    36
 Leave Link  801 at Wed Feb  8 14:51:22 2023, MaxMem=   754974720 cpu:               0.4 elap:               0.2
 (Enter /opt/cluster/programs/g16-c.01/g16/l804.exe)
 Closed-shell transformation, MDV=   754974720 ITran=4 ISComp=2.
 Unit  1 TFree=         57018 TCopy=        140846.
 Semi-Direct transformation.
 ModeAB=           4 MOrb=             4 LenV=     754769467
 LASXX=        30213 LTotXX=       30213 LenRXX=       63236
 LTotAB=       33023 MaxLAS=      110560 LenRXY=           0
 NonZer=       93449 LenScr=      785920 LnRSAI=      110560
 LnScr1=      785920 LExtra=           0 Total=      1745636
 MaxDsk=          -1 SrtSym=           T ITran=            4
 DoSDTr:  NPSUse=  4
 JobTyp=0 Pass  1:  I=   1 to   4.
 (rs|ai) integrals will be sorted in core.
 Complete sort for first half transformation.
 First half transformation complete.
 Complete sort for second half transformation.
 Second half transformation complete.
 Spin components of T(2) and E(2):
     alpha-alpha T2 =       0.8113900010D-02 E2=     -0.2841085065D-01
     alpha-beta  T2 =       0.4617130217D-01 E2=     -0.1665485608D+00
     beta-beta   T2 =       0.8113900010D-02 E2=     -0.2841085065D-01
 ANorm=    0.1030727463D+01
 E2 =    -0.2233702621D+00 EUMP2 =    -0.76249074741743D+02
 Leave Link  804 at Wed Feb  8 14:51:22 2023, MaxMem=   754974720 cpu:               0.3 elap:               0.1
 (Enter /opt/cluster/programs/g16-c.01/g16/l913.exe)
 CIDS:  MDV=   754974720.
 Frozen-core window:  NFC=   1 NFV=   0.
 IFCWin=0 IBDFC=1 NFBD=     0     0 NFCmp=     0     0 NFFFC=     0     0
 Using DD3R+UMP44R for 1st iteration.
 Using DD4RQ for 2nd and later iterations.
 Keep R2 and R3 ints in memory in symmetry-blocked form, NReq=1214250.
 FoFCou: FMM=F IPFlag=           0 FMFlag=           0 FMFlg1=           0
         NFxFlg=           0 DoJE=F BraDBF=F KetDBF=F FulRan=T
         wScrn=  0.000000 ICntrl=       600 IOpCl=  0 I1Cent=           0 NGrid=           0
         NMat0=    1 NMatS0=    861 NMatT0=    0 NMatD0=    1 NMtDS0=    0 NMtDT0=    0
 Petite list used in FoFCou.
 CIDS: In Core Option IDoMem=           1.
 CCSD(T)
 =======
 Iterations=  50 Convergence= 0.100D-06
 Produce multiple copies of IABC intergrals
 Iteration Nr.   1
 **********************
 DD1Dir will call FoFMem   1 times, MxPair=        20
 NAB=    10 NAA=     0 NBB=     0.
 MP4(R+Q)=  0.25828673D-02
 Maximum subspace dimension=  5
 A-vector RMS=  5.7888389D-03 Max=  1.8643607D-02 conv= 1.00D-05.
 RLE energy=       -0.2246658586
 E3=       -0.39739151D-02        EUMP3=      -0.76253048657D+02
 E4(DQ)=   -0.18057173D-02        UMP4(DQ)=   -0.76254854374D+02
 E4(SDQ)=  -0.37267910D-02        UMP4(SDQ)=  -0.76256775448D+02
 VARIATIONAL ENERGIES WITH THE FIRST-ORDER WAVEFUNCTION:
 DE(Corr)= -0.22465843     E(Corr)=     -76.250362915    
 NORM(A)=   0.10316591D+01
 Iteration Nr.   2
 **********************
 DD1Dir will call FoFMem   1 times, MxPair=        20
 NAB=    10 NAA=     0 NBB=     0.
 A-vector RMS=  7.1897692D-04 Max=  3.3632911D-03 conv= 1.00D-05.
 RLE energy=       -0.2303462784
 DE(Corr)= -0.22968038     E(CORR)=     -76.255384861     Delta=-5.02D-03
 NORM(A)=   0.10341837D+01
 Iteration Nr.   3
 **********************
 DD1Dir will call FoFMem   1 times, MxPair=        20
 NAB=    10 NAA=     0 NBB=     0.
 A-vector RMS=  8.3984441D-04 Max=  3.2183492D-03 conv= 1.00D-05.
 RLE energy=       -0.2307847999
 DE(Corr)= -0.23029181     E(CORR)=     -76.255996293     Delta=-6.11D-04
 NORM(A)=   0.10348147D+01
 Iteration Nr.   4
 **********************
 DD1Dir will call FoFMem   1 times, MxPair=        20
 NAB=    10 NAA=     0 NBB=     0.
 A-vector RMS=  1.1060582D-04 Max=  4.1600631D-04 conv= 1.00D-05.
 RLE energy=       -0.2308292110
 DE(Corr)= -0.23079304     E(CORR)=     -76.256497515     Delta=-5.01D-04
 NORM(A)=   0.10349532D+01
 Iteration Nr.   5
 **********************
 DD1Dir will call FoFMem   1 times, MxPair=        20
 NAB=    10 NAA=     0 NBB=     0.
 A-vector RMS=  5.1776843D-05 Max=  1.6775503D-04 conv= 1.00D-05.
 RLE energy=       -0.2308373552
 DE(Corr)= -0.23083231     E(CORR)=     -76.256536786     Delta=-3.93D-05
 NORM(A)=   0.10349780D+01
 Iteration Nr.   6
 **********************
 DD1Dir will call FoFMem   1 times, MxPair=        20
 NAB=    10 NAA=     0 NBB=     0.
 A-vector RMS=  1.5150090D-05 Max=  5.2879419D-05 conv= 1.00D-05.
 RLE energy=       -0.2308335097
 DE(Corr)= -0.23083547     E(CORR)=     -76.256539946     Delta=-3.16D-06
 NORM(A)=   0.10349806D+01
 Iteration Nr.   7
 **********************
 DD1Dir will call FoFMem   1 times, MxPair=        20
 NAB=    10 NAA=     0 NBB=     0.
 A-vector RMS=  7.7551848D-06 Max=  3.3217029D-05 conv= 1.00D-05.
 RLE energy=       -0.2308344685
 DE(Corr)= -0.23083557     E(CORR)=     -76.256540054     Delta=-1.08D-07
 NORM(A)=   0.10349815D+01
 Iteration Nr.   8
 **********************
 DD1Dir will call FoFMem   1 times, MxPair=        20
 NAB=    10 NAA=     0 NBB=     0.
 A-vector RMS=  2.6580120D-06 Max=  1.0180447D-05 conv= 1.00D-05.
 RLE energy=       -0.2308348020
 DE(Corr)= -0.23083500     E(CORR)=     -76.256539483     Delta= 5.70D-07
 NORM(A)=   0.10349821D+01
 Iteration Nr.   9
 **********************
 DD1Dir will call FoFMem   1 times, MxPair=        20
 NAB=    10 NAA=     0 NBB=     0.
 A-vector RMS=  9.7527417D-07 Max=  3.6097285D-06 conv= 1.00D-05.
 RLE energy=       -0.2308353063
 DE(Corr)= -0.23083530     E(CORR)=     -76.256539781     Delta=-2.98D-07
 NORM(A)=   0.10349824D+01
 Iteration Nr.  10
 **********************
 DD1Dir will call FoFMem   1 times, MxPair=        20
 NAB=    10 NAA=     0 NBB=     0.
 A-vector RMS=  3.7887892D-07 Max=  1.2707614D-06 conv= 1.00D-05.
 RLE energy=       -0.2308353499
 DE(Corr)= -0.23083531     E(CORR)=     -76.256539785     Delta=-4.09D-09
 NORM(A)=   0.10349825D+01
 CI/CC converged in   10 iterations to DelEn=-4.09D-09 Conv= 1.00D-07 ErrA1= 3.79D-07 Conv= 1.00D-05
 Wavefunction amplitudes converged. E(Corr)=     -76.256539785    
 Largest amplitude= 3.48D-02
 IPart=  4 IA=    3   10.95% done.
 IPart=  2 IA=    5   21.27% done.
 IPart=  3 IA=    7   30.95% done.
 IPart=  2 IA=    9   40.00% done.
 IPart=  3 IA=   12   52.38% done.
 IPart=  1 IA=   15   63.33% done.
 IPart=  2 IA=   18   72.86% done.
 IPart=  4 IA=   21   80.95% done.
 IPart=  2 IA=   26   91.27% done.
 Time for triples=        0.84 seconds.
 T4(CCSD)= -0.60184737D-02
 T5(CCSD)=  0.45601076D-03
 CCSD(T)= -0.76262102248D+02
 Discarding MO integrals.
 Leave Link  913 at Wed Feb  8 14:51:22 2023, MaxMem=   754974720 cpu:               1.7 elap:               0.5
 (Enter /opt/cluster/programs/g16-c.01/g16/l601.exe)
 Copying SCF densities to generalized density rwf, IOpCl= 0 IROHF=0.

 **********************************************************************

            Population analysis using the SCF Density.

 **********************************************************************

 Orbital symmetries:
       Occupied  (A1) (A1) (B2) (A1) (B1)
       Virtual   (A1) (B2) (A1) (B1) (A1) (B2) (B2) (A1) (A2) (A1)
                 (B1) (B2) (A1) (B2) (B2) (A1) (B1) (A1) (A2) (A1)
                 (B2) (B1) (A1) (B2) (B1) (A2) (A1) (B2) (A1) (B2)
                 (A1) (B1) (A1) (A2) (B2) (A1)
 The electronic state is 1-A1.
 Alpha  occ. eigenvalues --  -20.57545  -1.32038  -0.71933  -0.54228  -0.49909
 Alpha virt. eigenvalues --    0.03541   0.05601   0.17719   0.19770   0.21045
 Alpha virt. eigenvalues --    0.22634   0.29136   0.30154   0.37195   0.43415
 Alpha virt. eigenvalues --    0.45478   0.51115   0.63403   0.64903   0.84248
 Alpha virt. eigenvalues --    0.85102   1.08137   1.08518   1.14565   1.41616
 Alpha virt. eigenvalues --    1.45550   1.48567   1.56008   1.95214   2.01146
 Alpha virt. eigenvalues --    2.06197   2.37724   2.37913   2.50625   2.73162
 Alpha virt. eigenvalues --    2.86403   3.65352   3.66079   3.69962   4.12401
 Alpha virt. eigenvalues --    4.12868
          Condensed to atoms (all electrons):
               1          2          3
     1  O    7.822178   0.321674   0.321674
     2  H    0.321674   0.479148  -0.033585
     3  H    0.321674  -0.033585   0.479148
 Mulliken charges:
               1
     1  O   -0.465526
     2  H    0.232763
     3  H    0.232763
 Sum of Mulliken charges =  -0.00000
 Mulliken charges with hydrogens summed into heavy atoms:
               1
     1  O   -0.000000
 Electronic spatial extent (au):  <R**2>=             20.2574
 Charge=             -0.0000 electrons
 Dipole moment (field-independent basis, Debye):
    X=             -0.0000    Y=              0.0000    Z=             -1.7039  Tot=              1.7039
 Quadrupole moment (field-independent basis, Debye-Ang):
   XX=             -7.7555   YY=             -3.2989   ZZ=             -6.8657
   XY=              0.0000   XZ=              0.0000   YZ=             -0.0000
 Traceless Quadrupole moment (field-independent basis, Debye-Ang):
   XX=             -1.7821   YY=              2.6745   ZZ=             -0.8924
   XY=              0.0000   XZ=              0.0000   YZ=             -0.0000
 Octapole moment (field-independent basis, Debye-Ang**2):
  XXX=              0.0000  YYY=              0.0000  ZZZ=             -0.8121  XYY=             -0.0000
  XXY=             -0.0000  XXZ=             -0.2156  XZZ=              0.0000  YZZ=              0.0000
  YYZ=             -1.5107  XYZ=             -0.0000
 Hexadecapole moment (field-independent basis, Debye-Ang**3):
 XXXX=             -7.1543 YYYY=             -5.5067 ZZZZ=             -7.6876 XXXY=             -0.0000
 XXXZ=             -0.0000 YYYX=              0.0000 YYYZ=             -0.0000 ZZZX=             -0.0000
 ZZZY=              0.0000 XXYY=             -2.7259 XXZZ=             -2.4990 YYZZ=             -2.2029
 XXYZ=              0.0000 YYXZ=              0.0000 ZZXY=             -0.0000
 N-N= 8.690484713104D+00 E-N=-1.978335359897D+02  KE= 7.571421687444D+01
 Symmetry A1   KE= 6.791234250844D+01
 Symmetry A2   KE= 6.357812636577D-33
 Symmetry B1   KE= 4.424861269322D+00
 Symmetry B2   KE= 3.377013096684D+00
 Leave Link  601 at Wed Feb  8 14:51:23 2023, MaxMem=   754974720 cpu:               1.1 elap:               0.6
 (Enter /opt/cluster/programs/g16-c.01/g16/l9999.exe)
 Unable to Open any file for archive entry.
 1\1\GINC-NODE74\SP\RCCSD(T)-FC\Aug-CC-pVDZ\H2O1\BOITTIER\08-Feb-2023\0
 \\#P CCSD(T)/aug-cc-pVDZ scf(maxcycle=200)\\Gaussian input\\0,1\O,0,0.
 ,0.11751,0.\H,0,0.7973622306,-0.5007896629,0.\H,0,-0.9495937521,-0.223
 5951244,0.\\Version=ES64L-G16RevC.01\State=1-A1\HF=-76.0257045\MP2=-76
 .2490747\MP3=-76.2530487\MP4D=-76.2574372\MP4DQ=-76.2548544\MP4SDQ=-76
 .2567754\CCSD=-76.2565398\CCSD(T)=-76.2621022\RMSD=7.115e-09\PG=C02V [
 C2(O1),SGV(H2)]\\@
 The archive entry for this job was punched.


 ON A TOMBSTONE, "HERE LIES LESTER MOORE,
 FOUR SLUGS FROM A 44, NO LES, NO MORE".
 Job cpu time:       0 days  0 hours  0 minutes  7.1 seconds.
 Elapsed time:       0 days  0 hours  0 minutes  2.8 seconds.
 File lengths (MBytes):  RWF=     20 Int=      0 D2E=      0 Chk=      1 Scr=      1
 Normal termination of Gaussian 16 at Wed Feb  8 14:51:23 2023.
