 Entering Gaussian System, Link 0=/opt/cluster/programs/g16-c.01/g16/g16
 Input=/scratch/boittier/jobs/tmp.7261774/gaussian_103_water_ccsdt_atz.com
 Output=/scratch/boittier/jobs/tmp.7261774/gaussian_103_water_ccsdt_atz.out
 Initial command:
 /opt/cluster/programs/g16-c.01/g16/l1.exe "/scratch/boittier/jobs/tmp.7261774/Gau-49863.inp" -scrdir="/scratch/boittier/jobs/tmp.7261774/"
 Entering Link 1 = /opt/cluster/programs/g16-c.01/g16/l1.exe PID=     49864.
  
 Copyright (c) 1988-2019, Gaussian, Inc.  All Rights Reserved.
  
 This is part of the Gaussian(R) 16 program.  It is based on
 the Gaussian(R) 09 system (copyright 2009, Gaussian, Inc.),
 the Gaussian(R) 03 system (copyright 2003, Gaussian, Inc.),
 the Gaussian(R) 98 system (copyright 1998, Gaussian, Inc.),
 the Gaussian(R) 94 system (copyright 1995, Gaussian, Inc.),
 the Gaussian 92(TM) system (copyright 1992, Gaussian, Inc.),
 the Gaussian 90(TM) system (copyright 1990, Gaussian, Inc.),
 the Gaussian 88(TM) system (copyright 1988, Gaussian, Inc.),
 the Gaussian 86(TM) system (copyright 1986, Carnegie Mellon
 University), and the Gaussian 82(TM) system (copyright 1983,
 Carnegie Mellon University). Gaussian is a federally registered
 trademark of Gaussian, Inc.
  
 This software contains proprietary and confidential information,
 including trade secrets, belonging to Gaussian, Inc.
  
 This software is provided under written license and may be
 used, copied, transmitted, or stored only in accord with that
 written license.
  
 The following legend is applicable only to US Government
 contracts under FAR:
  
                    RESTRICTED RIGHTS LEGEND
  
 Use, reproduction and disclosure by the US Government is
 subject to restrictions as set forth in subparagraphs (a)
 and (c) of the Commercial Computer Software - Restricted
 Rights clause in FAR 52.227-19.
  
 Gaussian, Inc.
 340 Quinnipiac St., Bldg. 40, Wallingford CT 06492
  
  
 ---------------------------------------------------------------
 Warning -- This program may not be used in any manner that
 competes with the business of Gaussian, Inc. or will provide
 assistance to any competitor of Gaussian, Inc.  The licensee
 of this program is prohibited from giving any competitor of
 Gaussian, Inc. access to this program.  By using this program,
 the user acknowledges that Gaussian, Inc. is engaged in the
 business of creating and licensing software in the field of
 computational chemistry and represents and warrants to the
 licensee that it is not a competitor of Gaussian, Inc. and that
 it will not use this program in any manner prohibited above.
 ---------------------------------------------------------------
  

 Cite this work as:
 Gaussian 16, Revision C.01,
 M. J. Frisch, G. W. Trucks, H. B. Schlegel, G. E. Scuseria, 
 M. A. Robb, J. R. Cheeseman, G. Scalmani, V. Barone, 
 G. A. Petersson, H. Nakatsuji, X. Li, M. Caricato, A. V. Marenich, 
 J. Bloino, B. G. Janesko, R. Gomperts, B. Mennucci, H. P. Hratchian, 
 J. V. Ortiz, A. F. Izmaylov, J. L. Sonnenberg, D. Williams-Young, 
 F. Ding, F. Lipparini, F. Egidi, J. Goings, B. Peng, A. Petrone, 
 T. Henderson, D. Ranasinghe, V. G. Zakrzewski, J. Gao, N. Rega, 
 G. Zheng, W. Liang, M. Hada, M. Ehara, K. Toyota, R. Fukuda, 
 J. Hasegawa, M. Ishida, T. Nakajima, Y. Honda, O. Kitao, H. Nakai, 
 T. Vreven, K. Throssell, J. A. Montgomery, Jr., J. E. Peralta, 
 F. Ogliaro, M. J. Bearpark, J. J. Heyd, E. N. Brothers, K. N. Kudin, 
 V. N. Staroverov, T. A. Keith, R. Kobayashi, J. Normand, 
 K. Raghavachari, A. P. Rendell, J. C. Burant, S. S. Iyengar, 
 J. Tomasi, M. Cossi, J. M. Millam, M. Klene, C. Adamo, R. Cammi, 
 J. W. Ochterski, R. L. Martin, K. Morokuma, O. Farkas, 
 J. B. Foresman, and D. J. Fox, Gaussian, Inc., Wallingford CT, 2019.
 
 ******************************************
 Gaussian 16:  ES64L-G16RevC.01  3-Jul-2019
                 8-Feb-2023 
 ******************************************
 %nproc=4
 Will use up to    4 processors via shared memory.
 %mem=5760MB
 %chk=gaussian_103_water_ccsdt_atz.chk
 ----------------------------------------
 #P CCSD(T)/aug-cc-pVTZ scf(maxcycle=200)
 ----------------------------------------
 1/38=1,172=1/1;
 2/12=2,17=6,18=5,40=1/2;
 3/5=16,6=1,7=10,11=9,25=1,30=1/1,2,3;
 4//1;
 5/5=2,7=200,38=5/2;
 8/6=4,9=120000,10=1/1,4;
 9/5=7,14=2/13;
 6/7=2,8=2,9=2,10=2/1;
 99/5=1,9=1/99;
 Leave Link    1 at Wed Feb  8 13:53:35 2023, MaxMem=   754974720 cpu:               0.1 elap:               0.0
 (Enter /opt/cluster/programs/g16-c.01/g16/l101.exe)
 --------------
 Gaussian input
 --------------
 Symbolic Z-matrix:
 Charge =  0 Multiplicity = 1
 O                     0.        0.11751   0. 
 H                     0.75785  -0.47015   0. 
 H                    -0.62454  -0.67497   0. 
 
 ITRead=  0  0  0
 MicOpt= -1 -1 -1
 NAtoms=      3 NQM=        3 NQMF=       0 NMMI=      0 NMMIF=      0
                NMic=       0 NMicF=      0.
                    Isotopes and Nuclear Properties:
 (Nuclear quadrupole moments (NQMom) in fm**2, nuclear magnetic moments (NMagM)
  in nuclear magnetons)

  Atom         1           2           3
 IAtWgt=          16           1           1
 AtmWgt=  15.9949146   1.0078250   1.0078250
 NucSpn=           0           1           1
 AtZEff=  -0.0000000  -0.0000000  -0.0000000
 NQMom=    0.0000000   0.0000000   0.0000000
 NMagM=    0.0000000   2.7928460   2.7928460
 AtZNuc=   8.0000000   1.0000000   1.0000000
 Leave Link  101 at Wed Feb  8 13:53:36 2023, MaxMem=   754974720 cpu:               0.4 elap:               0.2
 (Enter /opt/cluster/programs/g16-c.01/g16/l202.exe)
                          Input orientation:                          
 ---------------------------------------------------------------------
 Center     Atomic      Atomic             Coordinates (Angstroms)
 Number     Number       Type             X           Y           Z
 ---------------------------------------------------------------------
      1          8           0        0.000000    0.117510    0.000000
      2          1           0        0.757850   -0.470150    0.000000
      3          1           0       -0.624543   -0.674972    0.000000
 ---------------------------------------------------------------------
                    Distance matrix (angstroms):
                    1          2          3
     1  O    0.000000
     2  H    0.959000   0.000000
     3  H    1.009000   1.397484   0.000000
 Stoichiometry    H2O
 Framework group  CS[SG(H2O)]
 Deg. of freedom     3
 Full point group                 CS      NOp   2
 Largest Abelian subgroup         CS      NOp   2
 Largest concise Abelian subgroup C1      NOp   1
                         Standard orientation:                         
 ---------------------------------------------------------------------
 Center     Atomic      Atomic             Coordinates (Angstroms)
 Number     Number       Type             X           Y           Z
 ---------------------------------------------------------------------
      1          8           0        0.000000    0.138657    0.000000
      2          1           0        0.697840   -0.519143    0.000000
      3          1           0       -0.697840   -0.590109    0.000000
 ---------------------------------------------------------------------
 Rotational constants (GHZ):         598.2821826         505.4878136         273.9921845
 Leave Link  202 at Wed Feb  8 13:53:36 2023, MaxMem=   754974720 cpu:               0.0 elap:               0.0
 (Enter /opt/cluster/programs/g16-c.01/g16/l301.exe)
 Standard basis: Aug-CC-pVTZ (5D, 7F)
 Ernie: Thresh=  0.10000D-02 Tol=  0.10000D-05 Strict=F.
 Ernie:  3 primitive shells out of 52 were deleted.
 There are    73 symmetry adapted cartesian basis functions of A'  symmetry.
 There are    32 symmetry adapted cartesian basis functions of A"  symmetry.
 There are    62 symmetry adapted basis functions of A'  symmetry.
 There are    30 symmetry adapted basis functions of A"  symmetry.
    92 basis functions,   126 primitive gaussians,   105 cartesian basis functions
     5 alpha electrons        5 beta electrons
       nuclear repulsion energy         8.9887294622 Hartrees.
 IExCor=    0 DFT=F Ex=HF Corr=None ExCW=0 ScaHFX=  1.000000
 ScaDFX=  1.000000  1.000000  1.000000  1.000000 ScalE2=  1.000000  1.000000
 IRadAn=      5 IRanWt=     -1 IRanGd=            0 ICorTp=0 IEmpDi=  4
 NAtoms=    3 NActive=    3 NUniq=    3 SFac= 1.00D+00 NAtFMM=   60 NAOKFM=F Big=F
 Integral buffers will be    131072 words long.
 Raffenetti 1 integral format.
 Two-electron integral symmetry is turned on.
 Leave Link  301 at Wed Feb  8 13:53:36 2023, MaxMem=   754974720 cpu:               0.1 elap:               0.1
 (Enter /opt/cluster/programs/g16-c.01/g16/l302.exe)
 NPDir=0 NMtPBC=     1 NCelOv=     1 NCel=       1 NClECP=     1 NCelD=      1
         NCelK=      1 NCelE2=     1 NClLst=     1 CellRange=     0.0.
 One-electron integrals computed using PRISM.
 One-electron integral symmetry used in STVInt
 NBasis=    92 RedAO= T EigKep=  4.01D-04  NBF=    62    30
 NBsUse=    92 1.00D-06 EigRej= -1.00D+00 NBFU=    62    30
 Leave Link  302 at Wed Feb  8 13:53:36 2023, MaxMem=   754974720 cpu:               0.6 elap:               0.2
 (Enter /opt/cluster/programs/g16-c.01/g16/l303.exe)
 DipDrv:  MaxL=1.
 Leave Link  303 at Wed Feb  8 13:53:36 2023, MaxMem=   754974720 cpu:               0.2 elap:               0.1
 (Enter /opt/cluster/programs/g16-c.01/g16/l401.exe)
 ExpMin= 2.53D-02 ExpMax= 1.53D+04 ExpMxC= 5.22D+02 IAcc=3 IRadAn=         5 AccDes= 0.00D+00
 Harris functional with IExCor=  205 and IRadAn=       5 diagonalized for initial guess.
 HarFok:  IExCor=  205 AccDes= 0.00D+00 IRadAn=         5 IDoV= 1 UseB2=F ITyADJ=14
 ICtDFT=  3500011 ScaDFX=  1.000000  1.000000  1.000000  1.000000
 FoFCou: FMM=F IPFlag=           0 FMFlag=      100000 FMFlg1=           0
         NFxFlg=           0 DoJE=T BraDBF=F KetDBF=T FulRan=T
         wScrn=  0.000000 ICntrl=       500 IOpCl=  0 I1Cent=   200000004 NGrid=           0
         NMat0=    1 NMatS0=      1 NMatT0=    0 NMatD0=    1 NMtDS0=    0 NMtDT0=    0
 Petite list used in FoFCou.
 Harris En= -76.1442349881918    
 JPrj=0 DoOrth=F DoCkMO=F.
 Initial guess orbital symmetries:
       Occupied  (A') (A') (A') (A') (A")
       Virtual   (A') (A') (A') (A") (A') (A') (A') (A') (A") (A")
                 (A') (A') (A') (A') (A') (A') (A') (A") (A") (A")
                 (A') (A') (A') (A") (A') (A") (A') (A') (A') (A")
                 (A') (A') (A") (A') (A') (A") (A") (A') (A') (A')
                 (A') (A") (A") (A') (A') (A") (A') (A') (A') (A")
                 (A') (A') (A") (A') (A') (A") (A') (A") (A") (A')
                 (A') (A") (A") (A') (A') (A') (A") (A') (A') (A")
                 (A') (A') (A') (A') (A") (A') (A') (A") (A") (A")
                 (A") (A') (A') (A') (A') (A') (A')
 The electronic state of the initial guess is 1-A'.
 Leave Link  401 at Wed Feb  8 13:53:37 2023, MaxMem=   754974720 cpu:               3.0 elap:               1.5
 (Enter /opt/cluster/programs/g16-c.01/g16/l502.exe)
 Keep R1 ints in memory in symmetry-blocked form, NReq=13818732.
 FoFCou: FMM=F IPFlag=           0 FMFlag=           0 FMFlg1=           0
         NFxFlg=           0 DoJE=F BraDBF=F KetDBF=F FulRan=T
         wScrn=  0.000000 ICntrl=       600 IOpCl=  0 I1Cent=           0 NGrid=           0
         NMat0=    1 NMatS0=   4278 NMatT0=    0 NMatD0=    1 NMtDS0=    0 NMtDT0=    0
 Petite list used in FoFCou.
 Closed shell SCF:
 Using DIIS extrapolation, IDIIS=  1040.
 NGot=   754974720 LenX=   750285684 LenY=   750274218
 Requested convergence on RMS density matrix=1.00D-08 within 200 cycles.
 Requested convergence on MAX density matrix=1.00D-06.
 Requested convergence on             energy=1.00D-06.
 No special actions if energy rises.

 Cycle   1  Pass 1  IDiag  1:
 E= -75.9639280827189    
 DIIS: error= 5.33D-02 at cycle   1 NSaved=   1.
 NSaved= 1 IEnMin= 1 EnMin= -75.9639280827189     IErMin= 1 ErrMin= 5.33D-02
 ErrMax= 5.33D-02  0.00D+00 EMaxC= 1.00D-01 BMatC= 1.97D-01 BMatP= 1.97D-01
 IDIUse=3 WtCom= 4.67D-01 WtEn= 5.33D-01
 Coeff-Com:  0.100D+01
 Coeff-En:   0.100D+01
 Coeff:      0.100D+01
 Gap=     0.456 Goal=   None    Shift=    0.000
 GapD=    0.456 DampG=2.000 DampE=0.500 DampFc=1.0000 IDamp=-1.
 RMSDP=2.14D-03 MaxDP=4.71D-02              OVMax= 1.29D-01

 Cycle   2  Pass 1  IDiag  1:
 E= -76.0122982409287     Delta-E=       -0.048370158210 Rises=F Damp=F
 DIIS: error= 3.69D-02 at cycle   2 NSaved=   2.
 NSaved= 2 IEnMin= 2 EnMin= -76.0122982409287     IErMin= 2 ErrMin= 3.69D-02
 ErrMax= 3.69D-02  0.00D+00 EMaxC= 1.00D-01 BMatC= 6.09D-02 BMatP= 1.97D-01
 IDIUse=3 WtCom= 6.31D-01 WtEn= 3.69D-01
 Coeff-Com:  0.330D+00 0.670D+00
 Coeff-En:   0.229D+00 0.771D+00
 Coeff:      0.293D+00 0.707D+00
 Gap=     0.565 Goal=   None    Shift=    0.000
 RMSDP=1.34D-03 MaxDP=3.64D-02 DE=-4.84D-02 OVMax= 6.59D-02

 Cycle   3  Pass 1  IDiag  1:
 E= -76.0490105545725     Delta-E=       -0.036712313644 Rises=F Damp=F
 DIIS: error= 7.14D-03 at cycle   3 NSaved=   3.
 NSaved= 3 IEnMin= 3 EnMin= -76.0490105545725     IErMin= 3 ErrMin= 7.14D-03
 ErrMax= 7.14D-03  0.00D+00 EMaxC= 1.00D-01 BMatC= 2.71D-03 BMatP= 6.09D-02
 IDIUse=3 WtCom= 9.29D-01 WtEn= 7.14D-02
 Coeff-Com: -0.318D-01 0.142D+00 0.890D+00
 Coeff-En:   0.000D+00 0.000D+00 0.100D+01
 Coeff:     -0.295D-01 0.132D+00 0.898D+00
 Gap=     0.538 Goal=   None    Shift=    0.000
 RMSDP=2.17D-04 MaxDP=4.10D-03 DE=-3.67D-02 OVMax= 1.31D-02

 Cycle   4  Pass 1  IDiag  1:
 E= -76.0507520422453     Delta-E=       -0.001741487673 Rises=F Damp=F
 DIIS: error= 6.62D-04 at cycle   4 NSaved=   4.
 NSaved= 4 IEnMin= 4 EnMin= -76.0507520422453     IErMin= 4 ErrMin= 6.62D-04
 ErrMax= 6.62D-04  0.00D+00 EMaxC= 1.00D-01 BMatC= 1.46D-05 BMatP= 2.71D-03
 IDIUse=3 WtCom= 9.93D-01 WtEn= 6.62D-03
 Coeff-Com:  0.784D-02-0.565D-01-0.271D+00 0.132D+01
 Coeff-En:   0.000D+00 0.000D+00 0.000D+00 0.100D+01
 Coeff:      0.779D-02-0.561D-01-0.269D+00 0.132D+01
 Gap=     0.540 Goal=   None    Shift=    0.000
 RMSDP=4.17D-05 MaxDP=7.43D-04 DE=-1.74D-03 OVMax= 2.45D-03

 Cycle   5  Pass 1  IDiag  1:
 E= -76.0507798777627     Delta-E=       -0.000027835517 Rises=F Damp=F
 DIIS: error= 1.95D-04 at cycle   5 NSaved=   5.
 NSaved= 5 IEnMin= 5 EnMin= -76.0507798777627     IErMin= 5 ErrMin= 1.95D-04
 ErrMax= 1.95D-04  0.00D+00 EMaxC= 1.00D-01 BMatC= 7.75D-07 BMatP= 1.46D-05
 IDIUse=3 WtCom= 9.98D-01 WtEn= 1.95D-03
 Coeff-Com:  0.120D-03 0.280D-02 0.129D-01-0.282D+00 0.127D+01
 Coeff-En:   0.000D+00 0.000D+00 0.000D+00 0.000D+00 0.100D+01
 Coeff:      0.119D-03 0.279D-02 0.129D-01-0.282D+00 0.127D+01
 Gap=     0.540 Goal=   None    Shift=    0.000
 RMSDP=1.15D-05 MaxDP=2.70D-04 DE=-2.78D-05 OVMax= 8.29D-04

 Cycle   6  Pass 1  IDiag  1:
 E= -76.0507817840023     Delta-E=       -0.000001906240 Rises=F Damp=F
 DIIS: error= 2.94D-05 at cycle   6 NSaved=   6.
 NSaved= 6 IEnMin= 6 EnMin= -76.0507817840023     IErMin= 6 ErrMin= 2.94D-05
 ErrMax= 2.94D-05  0.00D+00 EMaxC= 1.00D-01 BMatC= 2.50D-08 BMatP= 7.75D-07
 IDIUse=1 WtCom= 1.00D+00 WtEn= 0.00D+00
 Coeff-Com: -0.288D-03 0.131D-02 0.521D-02 0.219D-01-0.344D+00 0.132D+01
 Coeff:     -0.288D-03 0.131D-02 0.521D-02 0.219D-01-0.344D+00 0.132D+01
 Gap=     0.540 Goal=   None    Shift=    0.000
 RMSDP=2.43D-06 MaxDP=6.23D-05 DE=-1.91D-06 OVMax= 1.74D-04

 Cycle   7  Pass 1  IDiag  1:
 E= -76.0507818559593     Delta-E=       -0.000000071957 Rises=F Damp=F
 DIIS: error= 4.09D-06 at cycle   7 NSaved=   7.
 NSaved= 7 IEnMin= 7 EnMin= -76.0507818559593     IErMin= 7 ErrMin= 4.09D-06
 ErrMax= 4.09D-06  0.00D+00 EMaxC= 1.00D-01 BMatC= 9.03D-10 BMatP= 2.50D-08
 IDIUse=1 WtCom= 1.00D+00 WtEn= 0.00D+00
 Coeff-Com:  0.280D-04-0.310D-03-0.153D-02 0.150D-01-0.327D-01-0.103D+00
 Coeff-Com:  0.112D+01
 Coeff:      0.280D-04-0.310D-03-0.153D-02 0.150D-01-0.327D-01-0.103D+00
 Coeff:      0.112D+01
 Gap=     0.540 Goal=   None    Shift=    0.000
 RMSDP=3.49D-07 MaxDP=6.11D-06 DE=-7.20D-08 OVMax= 2.27D-05

 Cycle   8  Pass 1  IDiag  1:
 E= -76.0507818576402     Delta-E=       -0.000000001681 Rises=F Damp=F
 DIIS: error= 8.63D-07 at cycle   8 NSaved=   8.
 NSaved= 8 IEnMin= 8 EnMin= -76.0507818576402     IErMin= 8 ErrMin= 8.63D-07
 ErrMax= 8.63D-07  0.00D+00 EMaxC= 1.00D-01 BMatC= 3.92D-11 BMatP= 9.03D-10
 IDIUse=1 WtCom= 1.00D+00 WtEn= 0.00D+00
 Coeff-Com:  0.623D-05 0.902D-05 0.139D-03-0.421D-02 0.205D-01-0.281D-01
 Coeff-Com: -0.281D+00 0.129D+01
 Coeff:      0.623D-05 0.902D-05 0.139D-03-0.421D-02 0.205D-01-0.281D-01
 Coeff:     -0.281D+00 0.129D+01
 Gap=     0.540 Goal=   None    Shift=    0.000
 RMSDP=1.03D-07 MaxDP=2.48D-06 DE=-1.68D-09 OVMax= 5.88D-06

 Cycle   9  Pass 1  IDiag  1:
 E= -76.0507818577389     Delta-E=       -0.000000000099 Rises=F Damp=F
 DIIS: error= 1.60D-07 at cycle   9 NSaved=   9.
 NSaved= 9 IEnMin= 9 EnMin= -76.0507818577389     IErMin= 9 ErrMin= 1.60D-07
 ErrMax= 1.60D-07  0.00D+00 EMaxC= 1.00D-01 BMatC= 9.83D-13 BMatP= 3.92D-11
 IDIUse=1 WtCom= 1.00D+00 WtEn= 0.00D+00
 Coeff-Com: -0.198D-05 0.352D-05-0.132D-04 0.801D-03-0.424D-02 0.766D-02
 Coeff-Com:  0.576D-01-0.369D+00 0.131D+01
 Coeff:     -0.198D-05 0.352D-05-0.132D-04 0.801D-03-0.424D-02 0.766D-02
 Coeff:      0.576D-01-0.369D+00 0.131D+01
 Gap=     0.540 Goal=   None    Shift=    0.000
 RMSDP=1.78D-08 MaxDP=3.74D-07 DE=-9.87D-11 OVMax= 8.82D-07

 Cycle  10  Pass 1  IDiag  1:
 E= -76.0507818577412     Delta-E=       -0.000000000002 Rises=F Damp=F
 DIIS: error= 3.70D-08 at cycle  10 NSaved=  10.
 NSaved=10 IEnMin=10 EnMin= -76.0507818577412     IErMin=10 ErrMin= 3.70D-08
 ErrMax= 3.70D-08  0.00D+00 EMaxC= 1.00D-01 BMatC= 4.57D-14 BMatP= 9.83D-13
 IDIUse=1 WtCom= 1.00D+00 WtEn= 0.00D+00
 Coeff-Com:  0.406D-06-0.142D-05-0.932D-06-0.105D-03 0.618D-03-0.149D-02
 Coeff-Com: -0.669D-02 0.639D-01-0.414D+00 0.136D+01
 Coeff:      0.406D-06-0.142D-05-0.932D-06-0.105D-03 0.618D-03-0.149D-02
 Coeff:     -0.669D-02 0.639D-01-0.414D+00 0.136D+01
 Gap=     0.540 Goal=   None    Shift=    0.000
 RMSDP=4.41D-09 MaxDP=1.03D-07 DE=-2.32D-12 OVMax= 2.48D-07

 SCF Done:  E(RHF) =  -76.0507818577     A.U. after   10 cycles
            NFock= 10  Conv=0.44D-08     -V/T= 2.0022
 KE= 7.588498687757D+01 PE=-1.985167260288D+02 EE= 3.759222783130D+01
 Leave Link  502 at Wed Feb  8 13:53:48 2023, MaxMem=   754974720 cpu:              20.9 elap:              10.4
 (Enter /opt/cluster/programs/g16-c.01/g16/l801.exe)
 Windowed orbitals will be sorted by symmetry type.
 ExpMin= 2.53D-02 ExpMax= 1.53D+04 ExpMxC= 5.22D+02 IAcc=3 IRadAn=         5 AccDes= 0.00D+00
 HarFok:  IExCor=  205 AccDes= 0.00D+00 IRadAn=         5 IDoV=-2 UseB2=F ITyADJ=14
 ICtDFT= 12500011 ScaDFX=  1.000000  1.000000  1.000000  1.000000
 Largest valence mixing into a core orbital is  1.13D-04
 Largest core mixing into a valence orbital is  1.75D-05
 Range of M.O.s used for correlation:     2    92
 NBasis=    92 NAE=     5 NBE=     5 NFC=     1 NFV=     0
 NROrb=     91 NOA=     4 NOB=     4 NVA=    87 NVB=    87

 **** Warning!!: The largest alpha MO coefficient is  0.14383440D+02

 Leave Link  801 at Wed Feb  8 13:53:48 2023, MaxMem=   754974720 cpu:               0.3 elap:               0.1
 (Enter /opt/cluster/programs/g16-c.01/g16/l804.exe)
 Closed-shell transformation, MDV=   754974720 ITran=4 ISComp=2.
 Unit  1 TFree=        277501 TCopy=        343607.
 Semi-Direct transformation.
 ModeAB=           2 MOrb=             4 LenV=     754586778
 LASXX=       736380 LTotXX=      736380 LenRXX=      736380
 LTotAB=      763744 MaxLAS=     2025660 LenRXY=     2025660
 NonZer=     2107560 LenScr=     3929600 LnRSAI=           0
 LnScr1=           0 LExtra=           0 Total=      6691640
 MaxDsk=          -1 SrtSym=           F ITran=            4
 DoSDTr:  NPSUse=  4
 JobTyp=0 Pass  1:  I=   1 to   4.
 (rs|ai) integrals will be sorted in core.
 Complete sort for first half transformation.
 First half transformation complete.
 Complete sort for second half transformation.
 Second half transformation complete.
 Spin components of T(2) and E(2):
     alpha-alpha T2 =       0.8480398396D-02 E2=     -0.3307840327D-01
     alpha-beta  T2 =       0.4925612129D-01 E2=     -0.2059885981D+00
     beta-beta   T2 =       0.8480398396D-02 E2=     -0.3307840327D-01
 ANorm=    0.1032577802D+01
 E2 =    -0.2721454046D+00 EUMP2 =    -0.76322927262341D+02
 Leave Link  804 at Wed Feb  8 13:53:55 2023, MaxMem=   754974720 cpu:              14.3 elap:               7.2
 (Enter /opt/cluster/programs/g16-c.01/g16/l913.exe)
 CIDS:  MDV=   754974720.
 Frozen-core window:  NFC=   1 NFV=   0.
 IFCWin=0 IBDFC=1 NFBD=     0     0 NFCmp=     0     0 NFFFC=     0     0
 Using DD3R+UMP44R for 1st iteration.
 Using DD4RQ for 2nd and later iterations.
 Keep R2 and R3 ints in memory in symmetry-blocked form, NReq=13979827.
 FoFCou: FMM=F IPFlag=           0 FMFlag=           0 FMFlg1=           0
         NFxFlg=           0 DoJE=F BraDBF=F KetDBF=F FulRan=T
         wScrn=  0.000000 ICntrl=       600 IOpCl=  0 I1Cent=           0 NGrid=           0
         NMat0=    1 NMatS0=   4278 NMatT0=    0 NMatD0=    1 NMtDS0=    0 NMtDT0=    0
 Petite list used in FoFCou.
 CIDS: In Core Option IDoMem=           1.
 CCSD(T)
 =======
 Iterations=  50 Convergence= 0.100D-06
 Produce multiple copies of IABC intergrals
 Iteration Nr.   1
 **********************
 DD1Dir will call FoFMem   1 times, MxPair=        20
 NAB=    10 NAA=     0 NBB=     0.
 MP4(R+Q)=  0.42545971D-02
 Maximum subspace dimension=  5
 A-vector RMS=  3.0195004D-03 Max=  1.2888419D-02 conv= 1.00D-05.
 RLE energy=       -0.2696537184
 E3=       -0.17861308D-02        EUMP3=      -0.76324713393D+02
 E4(DQ)=   -0.79727407D-03        UMP4(DQ)=   -0.76325510667D+02
 E4(SDQ)=  -0.28957515D-02        UMP4(SDQ)=  -0.76327609145D+02
 VARIATIONAL ENERGIES WITH THE FIRST-ORDER WAVEFUNCTION:
 DE(Corr)= -0.26963070     E(Corr)=     -76.320412560    
 NORM(A)=   0.10321628D+01
 Iteration Nr.   2
 **********************
 DD1Dir will call FoFMem   1 times, MxPair=        20
 NAB=    10 NAA=     0 NBB=     0.
 A-vector RMS=  3.3016698D-04 Max=  2.3191795D-03 conv= 1.00D-05.
 RLE energy=       -0.2758953784
 DE(Corr)= -0.27550107     E(CORR)=     -76.326282923     Delta=-5.87D-03
 NORM(A)=   0.10345061D+01
 Iteration Nr.   3
 **********************
 DD1Dir will call FoFMem   1 times, MxPair=        20
 NAB=    10 NAA=     0 NBB=     0.
 A-vector RMS=  4.2615697D-04 Max=  2.3720644D-03 conv= 1.00D-05.
 RLE energy=       -0.2762467200
 DE(Corr)= -0.27582199     E(CORR)=     -76.326603848     Delta=-3.21D-04
 NORM(A)=   0.10349925D+01
 Iteration Nr.   4
 **********************
 DD1Dir will call FoFMem   1 times, MxPair=        20
 NAB=    10 NAA=     0 NBB=     0.
 A-vector RMS=  6.9123068D-05 Max=  3.9260326D-04 conv= 1.00D-05.
 RLE energy=       -0.2762861385
 DE(Corr)= -0.27625376     E(CORR)=     -76.327035623     Delta=-4.32D-04
 NORM(A)=   0.10351214D+01
 Iteration Nr.   5
 **********************
 DD1Dir will call FoFMem   1 times, MxPair=        20
 NAB=    10 NAA=     0 NBB=     0.
 A-vector RMS=  3.1786704D-05 Max=  2.0180258D-04 conv= 1.00D-05.
 RLE energy=       -0.2763003977
 DE(Corr)= -0.27629413     E(CORR)=     -76.327075992     Delta=-4.04D-05
 NORM(A)=   0.10351470D+01
 Iteration Nr.   6
 **********************
 DD1Dir will call FoFMem   1 times, MxPair=        20
 NAB=    10 NAA=     0 NBB=     0.
 A-vector RMS=  7.4730411D-06 Max=  4.4689729D-05 conv= 1.00D-05.
 RLE energy=       -0.2762964028
 DE(Corr)= -0.27629735     E(CORR)=     -76.327079211     Delta=-3.22D-06
 NORM(A)=   0.10351489D+01
 Iteration Nr.   7
 **********************
 DD1Dir will call FoFMem   1 times, MxPair=        20
 NAB=    10 NAA=     0 NBB=     0.
 A-vector RMS=  2.4296897D-06 Max=  1.1902519D-05 conv= 1.00D-05.
 RLE energy=       -0.2762964311
 DE(Corr)= -0.27629738     E(CORR)=     -76.327079239     Delta=-2.80D-08
 NORM(A)=   0.10351495D+01
 Iteration Nr.   8
 **********************
 DD1Dir will call FoFMem   1 times, MxPair=        20
 NAB=    10 NAA=     0 NBB=     0.
 A-vector RMS=  9.8031733D-07 Max=  6.1161802D-06 conv= 1.00D-05.
 RLE energy=       -0.2762969860
 DE(Corr)= -0.27629710     E(CORR)=     -76.327078960     Delta= 2.79D-07
 NORM(A)=   0.10351499D+01
 Iteration Nr.   9
 **********************
 DD1Dir will call FoFMem   1 times, MxPair=        20
 NAB=    10 NAA=     0 NBB=     0.
 A-vector RMS=  2.1311812D-07 Max=  1.1201853D-06 conv= 1.00D-05.
 RLE energy=       -0.2762970835
 DE(Corr)= -0.27629710     E(CORR)=     -76.327078961     Delta=-7.88D-10
 NORM(A)=   0.10351501D+01
 CI/CC converged in    9 iterations to DelEn=-7.88D-10 Conv= 1.00D-07 ErrA1= 2.13D-07 Conv= 1.00D-05
 Wavefunction amplitudes converged. E(Corr)=     -76.327078961    
 Largest amplitude= 2.49D-02
 IPart=  4 IA=    6   11.23% done.
 IPart=  3 IA=   11   21.79% done.
 IPart=  1 IA=   16   31.68% done.
 IPart=  4 IA=   21   40.90% done.
 IPart=  4 IA=   27   51.08% done.
 IPart=  2 IA=   33   60.30% done.
 IPart=  1 IA=   41   71.10% done.
 IPart=  1 IA=   49   80.19% done.
 IPart=  2 IA=   61   90.62% done.
 Time for triples=        7.90 seconds.
 T4(CCSD)= -0.94097586D-02
 T5(CCSD)=  0.35567945D-03
 CCSD(T)= -0.76336133040D+02
 Discarding MO integrals.
 Leave Link  913 at Wed Feb  8 13:53:59 2023, MaxMem=   754974720 cpu:              15.2 elap:               3.8
 (Enter /opt/cluster/programs/g16-c.01/g16/l601.exe)
 Copying SCF densities to generalized density rwf, IOpCl= 0 IROHF=0.

 **********************************************************************

            Population analysis using the SCF Density.

 **********************************************************************

 Orbital symmetries:
       Occupied  (A') (A') (A') (A') (A")
       Virtual   (A') (A') (A') (A") (A') (A') (A') (A') (A") (A")
                 (A') (A') (A') (A') (A') (A') (A') (A") (A") (A')
                 (A") (A') (A") (A') (A") (A') (A') (A') (A') (A")
                 (A') (A") (A') (A') (A') (A") (A") (A') (A') (A')
                 (A') (A") (A") (A') (A') (A") (A') (A') (A') (A")
                 (A') (A') (A") (A') (A') (A') (A") (A") (A") (A')
                 (A') (A") (A") (A') (A') (A') (A") (A') (A') (A')
                 (A") (A') (A') (A') (A") (A') (A') (A") (A") (A")
                 (A") (A') (A') (A') (A') (A') (A')
 The electronic state is 1-A'.
 Alpha  occ. eigenvalues --  -20.57749  -1.35112  -0.67567  -0.60701  -0.51235
 Alpha virt. eigenvalues --    0.02801   0.04850   0.13316   0.16182   0.17634
 Alpha virt. eigenvalues --    0.18670   0.22022   0.24580   0.27048   0.28571
 Alpha virt. eigenvalues --    0.30287   0.36771   0.42834   0.46051   0.59029
 Alpha virt. eigenvalues --    0.66829   0.69715   0.72570   0.73483   0.83913
 Alpha virt. eigenvalues --    0.86414   0.90051   0.90319   0.90577   0.92308
 Alpha virt. eigenvalues --    0.93834   0.94381   1.00630   1.03682   1.07382
 Alpha virt. eigenvalues --    1.10330   1.18012   1.19537   1.27596   1.44357
 Alpha virt. eigenvalues --    1.50526   1.54053   1.83010   1.89063   1.93548
 Alpha virt. eigenvalues --    2.13859   2.26572   2.31264   2.33113   2.40883
 Alpha virt. eigenvalues --    2.41029   2.44107   2.51604   2.67274   2.70669
 Alpha virt. eigenvalues --    2.72029   2.83452   2.86251   3.50821   3.66276
 Alpha virt. eigenvalues --    4.00565   4.04442   4.06351   4.11366   4.28948
 Alpha virt. eigenvalues --    4.36771   4.37082   4.40074   4.56564   4.71987
 Alpha virt. eigenvalues --    4.82131   5.04901   5.08055   5.15093   5.41957
 Alpha virt. eigenvalues --    5.49864   5.51959   6.26861   6.44992   6.68534
 Alpha virt. eigenvalues --    6.98977   7.06324   7.07760   7.25810   7.29801
 Alpha virt. eigenvalues --    7.31478   7.42730   7.45128   7.70186   7.94198
 Alpha virt. eigenvalues --    8.75081  15.13317
          Condensed to atoms (all electrons):
               1          2          3
     1  O    7.968746   0.253134   0.256300
     2  H    0.253134   0.488224   0.037045
     3  H    0.256300   0.037045   0.450071
 Mulliken charges:
               1
     1  O   -0.478180
     2  H    0.221597
     3  H    0.256583
 Sum of Mulliken charges =  -0.00000
 Mulliken charges with hydrogens summed into heavy atoms:
               1
     1  O   -0.000000
 Electronic spatial extent (au):  <R**2>=             19.7969
 Charge=             -0.0000 electrons
 Dipole moment (field-independent basis, Debye):
    X=              0.0299    Y=             -2.2249    Z=              0.0000  Tot=              2.2251
 Quadrupole moment (field-independent basis, Debye-Ang):
   XX=             -4.8410   YY=             -5.8033   ZZ=             -7.5992
   XY=              0.0958   XZ=              0.0000   YZ=              0.0000
 Traceless Quadrupole moment (field-independent basis, Debye-Ang):
   XX=              1.2402   YY=              0.2779   ZZ=             -1.5180
   XY=              0.0958   XZ=              0.0000   YZ=              0.0000
 Octapole moment (field-independent basis, Debye-Ang**2):
  XXX=              0.0848  YYY=             -1.4358  ZZZ=              0.0000  XYY=             -0.0881
  XXY=             -1.3759  XXZ=              0.0000  XZZ=              0.0270  YZZ=             -0.2614
  YYZ=              0.0000  XYZ=              0.0000
 Hexadecapole moment (field-independent basis, Debye-Ang**3):
 XXXX=             -6.5634 YYYY=             -7.4685 ZZZZ=             -6.7472 XXXY=             -0.0452
 XXXZ=              0.0000 YYYX=              0.0139 YYYZ=              0.0000 ZZZX=              0.0000
 ZZZY=              0.0000 XXYY=             -1.8076 XXZZ=             -2.4425 YYZZ=             -2.4687
 XXYZ=              0.0000 YYXZ=              0.0000 ZZXY=             -0.0358
 N-N= 8.988729462202D+00 E-N=-1.985167259319D+02  KE= 7.588498687757D+01
 Symmetry A'   KE= 7.140049058237D+01
 Symmetry A"   KE= 4.484496295202D+00
 Leave Link  601 at Wed Feb  8 13:54:00 2023, MaxMem=   754974720 cpu:               0.9 elap:               0.5
 (Enter /opt/cluster/programs/g16-c.01/g16/l9999.exe)
 Unable to Open any file for archive entry.
 1\1\GINC-NODE63\SP\RCCSD(T)-FC\Aug-CC-pVTZ\H2O1\BOITTIER\08-Feb-2023\0
 \\#P CCSD(T)/aug-cc-pVTZ scf(maxcycle=200)\\Gaussian input\\0,1\O,0,0.
 ,0.11751,0.\H,0,0.7578497316,-0.4701504329,0.\H,0,-0.624542997,-0.6749
 715738,0.\\Version=ES64L-G16RevC.01\State=1-A'\HF=-76.0507819\MP2=-76.
 3229273\MP3=-76.3247134\MP4D=-76.3297653\MP4DQ=-76.3255107\MP4SDQ=-76.
 3276091\CCSD=-76.327079\CCSD(T)=-76.336133\RMSD=4.407e-09\PG=CS [SG(H2
 O1)]\\@
 The archive entry for this job was punched.


 DESK:  A WASTEBASKET WITH DRAWERS.
 Job cpu time:       0 days  0 hours  0 minutes 56.6 seconds.
 Elapsed time:       0 days  0 hours  0 minutes 24.2 seconds.
 File lengths (MBytes):  RWF=     75 Int=      0 D2E=      0 Chk=      2 Scr=      1
 Normal termination of Gaussian 16 at Wed Feb  8 13:54:00 2023.
